Sconfig 0.00000 tap: on snoop: rts? on errs? on
Sconfig 0.00000 salvage: on !bd replies? on
Sconfig 0.00000 grat error: on grat reply: on
Sconfig 0.00000 $reply for props: on ring 0 search: on
Sconfig 0.00000 using MOBICACHE
Malicious set to true
MAC BEING SET to : 0 
MAC BEING SET to : 1 
MAC BEING SET to : 2 
MAC BEING SET to : 3 
s 3.000000000 _0_ AGT  --- 0 tcp 40 [0 0 0 0] ------- [0:0 1:0 32 0] [0 0] 0 0
r 3.000000000 _0_ RTR  --- 0 tcp 40 [0 0 0 0] ------- [0:0 1:0 32 0] [0 0] 0 0
Received a Packet. My ID : 0
Route Not Found
Sending out Packet! My id : 0
s 3.003987806 _0_ RTR  --- 1 DSR 32 [0 0 0 0] ------- [0:255 1:255 32 0] 1 [1 1] [0 1 0 0->0] [0 0 0 0->0]
s 3.004442806 _0_ MAC  --- 1 DSR 90 [0 ffffffff 0 800] ------- [0:255 1:255 32 0] 1 [1 1] [0 1 0 0->0] [0 0 0 0->0]
r 3.005163179 _2_ MAC  --- 1 DSR 32 [0 ffffffff 0 800] ------- [0:255 1:255 32 0] 1 [1 1] [0 1 0 0->0] [0 0 0 0->0]
r 3.005163179 _3_ MAC  --- 1 DSR 32 [0 ffffffff 0 800] ------- [0:255 1:255 32 0] 1 [1 1] [0 1 0 0->0] [0 0 0 0->0]
r 3.005188179 _2_ RTR  --- 1 DSR 32 [0 ffffffff 0 800] ------- [0:255 1:255 32 0] 1 [1 1] [0 1 0 0->0] [0 0 0 0->0]
Received a Packet. My ID : 2
Route Not Found
r 3.005188179 _3_ RTR  --- 1 DSR 32 [0 ffffffff 0 800] ------- [0:255 1:255 32 0] 1 [1 1] [0 1 0 0->0] [0 0 0 0->0]
Received a Packet. My ID : 3
Route Not Found
Route Not Found
Route Not Found
Sending out Packet! My id : 0
s 3.071751242 _0_ RTR  --- 3 DSR 32 [0 0 0 0] ------- [0:255 1:255 32 0] 1 [1 2] [0 2 0 0->0] [0 0 0 0->0]
s 3.072346242 _0_ MAC  --- 3 DSR 90 [0 ffffffff 0 800] ------- [0:255 1:255 32 0] 1 [1 2] [0 2 0 0->0] [0 0 0 0->0]
r 3.073066615 _2_ MAC  --- 3 DSR 32 [0 ffffffff 0 800] ------- [0:255 1:255 32 0] 1 [1 2] [0 2 0 0->0] [0 0 0 0->0]
r 3.073066615 _3_ MAC  --- 3 DSR 32 [0 ffffffff 0 800] ------- [0:255 1:255 32 0] 1 [1 2] [0 2 0 0->0] [0 0 0 0->0]
r 3.073091615 _2_ RTR  --- 3 DSR 32 [0 ffffffff 0 800] ------- [0:255 1:255 32 0] 1 [1 2] [0 2 0 0->0] [0 0 0 0->0]
Received a Packet. My ID : 2
Route Not Found
Sending out Packet! My id : 2
r 3.073091615 _3_ RTR  --- 3 DSR 32 [0 ffffffff 0 800] ------- [0:255 1:255 32 0] 1 [1 2] [0 2 0 0->0] [0 0 0 0->0]
Received a Packet. My ID : 3
Route Not Found
Sending out Packet! My id : 3
f 3.073942102 _3_ RTR  --- 3 DSR 48 [0 ffffffff 0 800] ------- [0:255 1:255 32 0] 2 [1 2] [0 2 0 0->0] [0 0 0 0->0]
f 3.074072770 _2_ RTR  --- 3 DSR 48 [0 ffffffff 0 800] ------- [0:255 1:255 32 0] 2 [1 2] [0 2 0 0->0] [0 0 0 0->0]
s 3.074117102 _3_ MAC  --- 3 DSR 106 [0 ffffffff 3 800] ------- [0:255 1:255 32 0] 2 [1 2] [0 2 0 0->0] [0 0 0 0->0]
r 3.074965435 _2_ MAC  --- 3 DSR 48 [0 ffffffff 3 800] ------- [0:255 1:255 32 0] 2 [1 2] [0 2 0 0->0] [0 0 0 0->0]
r 3.074965474 _0_ MAC  --- 3 DSR 48 [0 ffffffff 3 800] ------- [0:255 1:255 32 0] 2 [1 2] [0 2 0 0->0] [0 0 0 0->0]
r 3.074965474 _1_ MAC  --- 3 DSR 48 [0 ffffffff 3 800] ------- [0:255 1:255 32 0] 2 [1 2] [0 2 0 0->0] [0 0 0 0->0]
r 3.074990435 _2_ RTR  --- 3 DSR 48 [0 ffffffff 3 800] ------- [0:255 1:255 32 0] 2 [1 2] [0 2 0 0->0] [0 0 0 0->0]
Received a Packet. My ID : 2
r 3.074990474 _0_ RTR  --- 3 DSR 48 [0 ffffffff 3 800] ------- [0:255 1:255 32 0] 2 [1 2] [0 2 0 0->0] [0 0 0 0->0]
Received a Packet. My ID : 0
r 3.074990474 _1_ RTR  --- 3 DSR 48 [0 ffffffff 3 800] ------- [0:255 1:255 32 0] 2 [1 2] [0 2 0 0->0] [0 0 0 0->0]
Received a Packet. My ID : 1
Adding Route. My ID : 1
Route is [1 3 (0) ]
s 3.075615435 _2_ MAC  --- 3 DSR 106 [0 ffffffff 2 800] ------- [0:255 1:255 32 0] 2 [1 2] [0 2 0 0->0] [0 0 0 0->0]
r 3.076463768 _3_ MAC  --- 3 DSR 48 [0 ffffffff 2 800] ------- [0:255 1:255 32 0] 2 [1 2] [0 2 0 0->0] [0 0 0 0->0]
r 3.076463808 _0_ MAC  --- 3 DSR 48 [0 ffffffff 2 800] ------- [0:255 1:255 32 0] 2 [1 2] [0 2 0 0->0] [0 0 0 0->0]
r 3.076463808 _1_ MAC  --- 3 DSR 48 [0 ffffffff 2 800] ------- [0:255 1:255 32 0] 2 [1 2] [0 2 0 0->0] [0 0 0 0->0]
r 3.076488768 _3_ RTR  --- 3 DSR 48 [0 ffffffff 2 800] ------- [0:255 1:255 32 0] 2 [1 2] [0 2 0 0->0] [0 0 0 0->0]
Received a Packet. My ID : 3
r 3.076488808 _0_ RTR  --- 3 DSR 48 [0 ffffffff 2 800] ------- [0:255 1:255 32 0] 2 [1 2] [0 2 0 0->0] [0 0 0 0->0]
Received a Packet. My ID : 0
r 3.076488808 _1_ RTR  --- 3 DSR 48 [0 ffffffff 2 800] ------- [0:255 1:255 32 0] 2 [1 2] [0 2 0 0->0] [0 0 0 0->0]
Received a Packet. My ID : 1
Adding Route. My ID : 1
Route is [1 2 (0) ]
Received a Packet. My ID : 1
Sending out Packet! My id : 1
s 3.079419294 _1_ RTR  --- 4 DSR 52 [0 0 0 0] ------- [1:255 0:255 254 3] 3 [0 2] [1 2 3 0->1] [0 0 0 0->0]
s 3.080074294 _1_ MAC  --- 0 ARP 86 [0 ffffffff 1 806] ------- [REQUEST 1/1 0/3]
r 3.080762667 _3_ MAC  --- 0 ARP 28 [0 ffffffff 1 806] ------- [REQUEST 1/1 0/3]
r 3.080762667 _2_ MAC  --- 0 ARP 28 [0 ffffffff 1 806] ------- [REQUEST 1/1 0/3]
s 3.081057667 _3_ MAC  --- 0 RTS 44 [52e 1 3 0] 
r 3.081410039 _1_ MAC  --- 0 RTS 44 [52e 1 3 0] 
s 3.081420039 _1_ MAC  --- 0 CTS 38 [3f4 3 0 0] 
r 3.081724412 _3_ MAC  --- 0 CTS 38 [3f4 3 0 0] 
s 3.081734412 _3_ MAC  --- 0 ARP 86 [13a 1 3 806] ------- [REPLY 3/3 1/1]
Received a Packet. My ID : 1
Sending out Packet! My id : 1
s 3.082241911 _1_ RTR  --- 5 DSR 52 [0 0 0 0] ------- [1:255 0:255 254 2] 3 [0 2] [1 2 3 0->1] [0 0 0 0->0]
r 3.082422785 _1_ MAC  --- 0 ARP 28 [13a 1 3 806] ------- [REPLY 3/3 1/1]
s 3.082432785 _1_ MAC  --- 0 ACK 38 [0 3 0 0] 
r 3.082737158 _3_ MAC  --- 0 ACK 38 [0 3 0 0] 
s 3.083146785 _1_ MAC  --- 0 ARP 86 [0 ffffffff 1 806] ------- [REQUEST 1/1 0/2]
r 3.083835158 _3_ MAC  --- 0 ARP 28 [0 ffffffff 1 806] ------- [REQUEST 1/1 0/2]
r 3.083835158 _2_ MAC  --- 0 ARP 28 [0 ffffffff 1 806] ------- [REQUEST 1/1 0/2]
s 3.083924785 _1_ MAC  --- 0 RTS 44 [5ee 3 1 0] 
r 3.084277158 _3_ MAC  --- 0 RTS 44 [5ee 3 1 0] 
s 3.084287158 _3_ MAC  --- 0 CTS 38 [4b4 1 0 0] 
r 3.084591530 _1_ MAC  --- 0 CTS 38 [4b4 1 0 0] 
s 3.084601530 _1_ MAC  --- 4 DSR 110 [13a 3 1 800] ------- [1:255 0:255 254 3] 3 [0 2] [1 2 3 0->1] [0 0 0 0->0]
r 3.085481903 _3_ MAC  --- 4 DSR 52 [13a 3 1 800] ------- [1:255 0:255 254 3] 3 [0 2] [1 2 3 0->1] [0 0 0 0->0]
s 3.085491903 _3_ MAC  --- 0 ACK 38 [0 1 0 0] 
r 3.085506903 _3_ RTR  --- 4 DSR 52 [13a 3 1 800] ------- [1:255 0:255 254 3] 3 [0 2] [1 2 3 0->1] [0 0 0 0->0]
Received a Packet. My ID : 3
Sending out Packet! My id : 3
f 3.085506903 _3_ RTR  --- 4 DSR 52 [13a 3 1 800] ------- [1:255 0:255 253 0] 3 [0 2] [1 2 3 0->1] [0 0 0 0->0]
r 3.085796276 _1_ MAC  --- 0 ACK 38 [0 1 0 0] 
s 3.085845903 _3_ MAC  --- 0 ARP 86 [0 ffffffff 3 806] ------- [REQUEST 3/3 0/0]
r 3.086534236 _2_ MAC  --- 0 ARP 28 [0 ffffffff 3 806] ------- [REQUEST 3/3 0/0]
r 3.086534276 _0_ MAC  --- 0 ARP 28 [0 ffffffff 3 806] ------- [REQUEST 3/3 0/0]
r 3.086534276 _1_ MAC  --- 0 ARP 28 [0 ffffffff 3 806] ------- [REQUEST 3/3 0/0]
s 3.086709276 _0_ MAC  --- 0 RTS 44 [52e 3 0 0] 
r 3.087061648 _3_ MAC  --- 0 RTS 44 [52e 3 0 0] 
s 3.087071648 _3_ MAC  --- 0 CTS 38 [3f4 0 0 0] 
r 3.087376021 _0_ MAC  --- 0 CTS 38 [3f4 0 0 0] 
s 3.087386021 _0_ MAC  --- 0 ARP 86 [13a 3 0 806] ------- [REPLY 0/0 3/3]
r 3.088074394 _3_ MAC  --- 0 ARP 28 [13a 3 0 806] ------- [REPLY 0/0 3/3]
s 3.088084394 _3_ MAC  --- 0 ACK 38 [0 0 0 0] 
r 3.088388766 _0_ MAC  --- 0 ACK 38 [0 0 0 0] 
s 3.088578727 _2_ MAC  --- 0 RTS 44 [52e 1 2 0] 
r 3.088931100 _1_ MAC  --- 0 RTS 44 [52e 1 2 0] 
s 3.088941100 _1_ MAC  --- 0 CTS 38 [3f4 2 0 0] 
r 3.089245472 _2_ MAC  --- 0 CTS 38 [3f4 2 0 0] 
s 3.089255472 _2_ MAC  --- 0 ARP 86 [13a 1 2 806] ------- [REPLY 2/2 1/1]
r 3.089943845 _1_ MAC  --- 0 ARP 28 [13a 1 2 806] ------- [REPLY 2/2 1/1]
s 3.089953845 _1_ MAC  --- 0 ACK 38 [0 2 0 0] 
r 3.090258218 _2_ MAC  --- 0 ACK 38 [0 2 0 0] 
s 3.090568218 _3_ MAC  --- 0 RTS 44 [5ee 0 3 0] 
r 3.090920590 _0_ MAC  --- 0 RTS 44 [5ee 0 3 0] 
s 3.090930590 _0_ MAC  --- 0 CTS 38 [4b4 3 0 0] 
r 3.091234963 _3_ MAC  --- 0 CTS 38 [4b4 3 0 0] 
s 3.091244963 _3_ MAC  --- 4 DSR 110 [13a 0 3 800] ------- [1:255 0:255 253 0] 3 [0 2] [1 2 3 0->1] [0 0 0 0->0]
r 3.092125336 _0_ MAC  --- 4 DSR 52 [13a 0 3 800] ------- [1:255 0:255 253 0] 3 [0 2] [1 2 3 0->1] [0 0 0 0->0]
s 3.092135336 _0_ MAC  --- 0 ACK 38 [0 3 0 0] 
r 3.092150336 _0_ RTR  --- 4 DSR 52 [13a 0 3 800] ------- [1:255 0:255 253 0] 3 [0 2] [1 2 3 0->1] [0 0 0 0->0]
Received a Packet. My ID : 0
Adding Route. My ID : 0
Route is [(0) 3 1 ]
Route Found: [(0) 3 1 ]
I am Node 0
Route Cache Hit: Trust value for Route # 0
Route Cache Hit: Route is [(0) 3 1 ]
Route Cache Hit: Route's trust value is 0.230000
Sending out Packet! My id : 0
SFESTs 3.092150336 _0_ 0 [0 -> 1] 1(1) to 3 [0 |3 1 ]
s 3.092150336 _0_ RTR  --- 0 tcp 80 [0 0 0 0] ------- [0:0 1:0 32 3] [0 0] 0 0
r 3.092439708 _3_ MAC  --- 0 ACK 38 [0 3 0 0] 
s 3.092709336 _1_ MAC  --- 0 RTS 44 [5ee 2 1 0] 
s 3.092889336 _0_ MAC  --- 0 RTS 44 [6ce 3 0 0] 
D 3.092889708 _2_ MAC  COL 0 RTS 44 [5ee 2 1 0] 
D 3.093241708 _3_ MAC  COL 0 RTS 44 [6ce 3 0 0] 
s 3.093729336 _0_ MAC  --- 0 RTS 44 [6ce 3 0 0] 
r 3.094081708 _3_ MAC  --- 0 RTS 44 [6ce 3 0 0] 
s 3.094091708 _3_ MAC  --- 0 CTS 38 [594 0 0 0] 
r 3.094396081 _0_ MAC  --- 0 CTS 38 [594 0 0 0] 
s 3.094406081 _0_ MAC  --- 0 tcp 138 [13a 3 0 800] ------- [0:0 1:0 32 3] [0 0] 0 0
r 3.095510454 _3_ MAC  --- 0 tcp 80 [13a 3 0 800] ------- [0:0 1:0 32 3] [0 0] 1 0
s 3.095520454 _3_ MAC  --- 0 ACK 38 [0 0 0 0] 
r 3.095535454 _3_ RTR  --- 0 tcp 80 [13a 3 0 800] ------- [0:0 1:0 32 3] [0 0] 1 0
Received a Packet. My ID : 3
Sending out Packet! My id : 3
f 3.095535454 _3_ RTR  --- 0 tcp 80 [13a 3 0 800] ------- [0:0 1:0 31 1] [0 0] 1 0
r 3.095824826 _0_ MAC  --- 0 ACK 38 [0 0 0 0] 
s 3.095894826 _1_ MAC  --- 0 RTS 44 [5ee 2 1 0] 
r 3.096247199 _2_ MAC  --- 0 RTS 44 [5ee 2 1 0] 
s 3.096257199 _2_ MAC  --- 0 CTS 38 [4b4 1 0 0] 
r 3.096561572 _1_ MAC  --- 0 CTS 38 [4b4 1 0 0] 
s 3.096571572 _1_ MAC  --- 5 DSR 110 [13a 2 1 800] ------- [1:255 0:255 254 2] 3 [0 2] [1 2 3 0->1] [0 0 0 0->0]
r 3.097451944 _2_ MAC  --- 5 DSR 52 [13a 2 1 800] ------- [1:255 0:255 254 2] 3 [0 2] [1 2 3 0->1] [0 0 0 0->0]
s 3.097461944 _2_ MAC  --- 0 ACK 38 [0 1 0 0] 
r 3.097476944 _2_ RTR  --- 5 DSR 52 [13a 2 1 800] ------- [1:255 0:255 254 2] 3 [0 2] [1 2 3 0->1] [0 0 0 0->0]
Received a Packet. My ID : 2
Sending out Packet! My id : 2
f 3.097476944 _2_ RTR  --- 5 DSR 52 [13a 2 1 800] ------- [1:255 0:255 253 0] 3 [0 2] [1 2 3 0->1] [0 0 0 0->0]
r 3.097766317 _1_ MAC  --- 0 ACK 38 [0 1 0 0] 
s 3.097835944 _2_ MAC  --- 0 ARP 86 [0 ffffffff 2 806] ------- [REQUEST 2/2 0/0]
s 3.097836278 _3_ MAC  --- 0 RTS 44 [6ce 1 3 0] 
D 3.097836650 _1_ MAC  COL 0 RTS 44 [6ce 1 3 0] 
D 3.098524317 _0_ MAC  COL 0 ARP 86 [0 ffffffff 2 806] ------- [REQUEST 2/2 0/0]
D 3.098524317 _1_ MAC  COL 0 ARP 86 [0 ffffffff 2 806] ------- [REQUEST 2/2 0/0]
s 3.099978278 _3_ MAC  --- 0 RTS 44 [6ce 1 3 0] 
r 3.100330650 _1_ MAC  --- 0 RTS 44 [6ce 1 3 0] 
s 3.100340650 _1_ MAC  --- 0 CTS 38 [594 3 0 0] 
r 3.100645023 _3_ MAC  --- 0 CTS 38 [594 3 0 0] 
s 3.100655023 _3_ MAC  --- 0 tcp 138 [13a 1 3 800] ------- [0:0 1:0 31 1] [0 0] 1 0
r 3.101759396 _1_ MAC  --- 0 tcp 80 [13a 1 3 800] ------- [0:0 1:0 31 1] [0 0] 2 0
s 3.101769396 _1_ MAC  --- 0 ACK 38 [0 3 0 0] 
r 3.101784396 _1_ RTR  --- 0 tcp 80 [13a 1 3 800] ------- [0:0 1:0 31 1] [0 0] 2 0
Received a Packet. My ID : 1
r 3.101784396 _1_ AGT  --- 0 tcp 40 [13a 1 3 800] ------- [0:0 1:0 31 1] [0 0] 2 0
s 3.101784396 _1_ AGT  --- 6 ack 40 [0 0 0 0] ------- [1:0 0:0 32 0] [0 0] 0 0
r 3.101784396 _1_ RTR  --- 6 ack 40 [0 0 0 0] ------- [1:0 0:0 32 0] [0 0] 0 0
Received a Packet. My ID : 1
Route Found: [(1) 3 0 ]
I am Node 1
Route Cache Hit: Trust value for Route # 0
Route Cache Hit: Route is [(1) 3 0 ]
Route Cache Hit: Route's trust value is 0.230000
Sending out Packet! My id : 1
SFESTs 3.101784396 _1_ 6 [1 -> 0] 1(1) to 3 [1 |3 0 ]
s 3.101784396 _1_ RTR  --- 6 ack 80 [0 0 0 0] ------- [1:0 0:0 32 3] [0 0] 0 0
r 3.102073768 _3_ MAC  --- 0 ACK 38 [0 3 0 0] 
s 3.102703396 _1_ MAC  --- 0 RTS 44 [6ce 3 1 0] 
r 3.103055768 _3_ MAC  --- 0 RTS 44 [6ce 3 1 0] 
s 3.103065768 _3_ MAC  --- 0 CTS 38 [594 1 0 0] 
r 3.103370141 _1_ MAC  --- 0 CTS 38 [594 1 0 0] 
s 3.103380141 _1_ MAC  --- 6 ack 138 [13a 3 1 800] ------- [1:0 0:0 32 3] [0 0] 0 0
r 3.104484514 _3_ MAC  --- 6 ack 80 [13a 3 1 800] ------- [1:0 0:0 32 3] [0 0] 1 0
s 3.104494514 _3_ MAC  --- 0 ACK 38 [0 1 0 0] 
r 3.104509514 _3_ RTR  --- 6 ack 80 [13a 3 1 800] ------- [1:0 0:0 32 3] [0 0] 1 0
Received a Packet. My ID : 3
Sending out Packet! My id : 3
f 3.104509514 _3_ RTR  --- 6 ack 80 [13a 3 1 800] ------- [1:0 0:0 31 0] [0 0] 1 0
r 3.104798886 _1_ MAC  --- 0 ACK 38 [0 1 0 0] 
s 3.105088514 _3_ MAC  --- 0 RTS 44 [6ce 0 3 0] 
r 3.105440886 _0_ MAC  --- 0 RTS 44 [6ce 0 3 0] 
s 3.105450886 _0_ MAC  --- 0 CTS 38 [594 3 0 0] 
r 3.105755259 _3_ MAC  --- 0 CTS 38 [594 3 0 0] 
s 3.105765259 _3_ MAC  --- 6 ack 138 [13a 0 3 800] ------- [1:0 0:0 31 0] [0 0] 1 0
r 3.106869632 _0_ MAC  --- 6 ack 80 [13a 0 3 800] ------- [1:0 0:0 31 0] [0 0] 2 0
s 3.106879632 _0_ MAC  --- 0 ACK 38 [0 3 0 0] 
r 3.106894632 _0_ RTR  --- 6 ack 80 [13a 0 3 800] ------- [1:0 0:0 31 0] [0 0] 2 0
Received a Packet. My ID : 0
r 3.106894632 _0_ AGT  --- 6 ack 40 [13a 0 3 800] ------- [1:0 0:0 31 0] [0 0] 2 0
s 3.106894632 _0_ AGT  --- 7 tcp 1040 [0 0 0 0] ------- [0:0 1:0 32 0] [1 0] 0 0
r 3.106894632 _0_ RTR  --- 7 tcp 1040 [0 0 0 0] ------- [0:0 1:0 32 0] [1 0] 0 0
Received a Packet. My ID : 0
Route Found: [(0) 3 1 ]
I am Node 0
Route Cache Hit: Trust value for Route # 0
Route Cache Hit: Route is [(0) 3 1 ]
Route Cache Hit: Route's trust value is 0.230000
Sending out Packet! My id : 0
SFESTs 3.106894632 _0_ 7 [0 -> 1] 1(1) to 3 [0 |3 1 ]
s 3.106894632 _0_ AGT  --- 8 tcp 1040 [0 0 0 0] ------- [0:0 1:0 32 0] [2 0] 0 0
r 3.106894632 _0_ RTR  --- 8 tcp 1040 [0 0 0 0] ------- [0:0 1:0 32 0] [2 0] 0 0
Received a Packet. My ID : 0
Route Found: [(0) 3 1 ]
I am Node 0
Route Cache Hit: Trust value for Route # 0
Route Cache Hit: Route is [(0) 3 1 ]
Route Cache Hit: Route's trust value is 0.230000
Sending out Packet! My id : 0
SFESTs 3.106894632 _0_ 8 [0 -> 1] 1(1) to 3 [0 |3 1 ]
s 3.106894632 _0_ RTR  --- 7 tcp 1080 [0 0 0 0] ------- [0:0 1:0 32 3] [1 0] 0 0
s 3.106894632 _0_ RTR  --- 8 tcp 1080 [0 0 0 0] ------- [0:0 1:0 32 3] [2 0] 0 0
r 3.107184005 _3_ MAC  --- 0 ACK 38 [0 3 0 0] 
s 3.107273632 _0_ MAC  --- 0 RTS 44 [260e 3 0 0] 
r 3.107626005 _3_ MAC  --- 0 RTS 44 [260e 3 0 0] 
s 3.107636005 _3_ MAC  --- 0 CTS 38 [24d4 0 0 0] 
r 3.107940377 _0_ MAC  --- 0 CTS 38 [24d4 0 0 0] 
s 3.107950377 _0_ MAC  --- 7 tcp 1138 [13a 3 0 800] ------- [0:0 1:0 32 3] [1 0] 0 0
r 3.117054750 _3_ MAC  --- 7 tcp 1080 [13a 3 0 800] ------- [0:0 1:0 32 3] [1 0] 1 0
s 3.117064750 _3_ MAC  --- 0 ACK 38 [0 0 0 0] 
r 3.117079750 _3_ RTR  --- 7 tcp 1080 [13a 3 0 800] ------- [0:0 1:0 32 3] [1 0] 1 0
Received a Packet. My ID : 3
Sending out Packet! My id : 3
f 3.117079750 _3_ RTR  --- 7 tcp 1080 [13a 3 0 800] ------- [0:0 1:0 31 1] [1 0] 1 0
r 3.117369123 _0_ MAC  --- 0 ACK 38 [0 0 0 0] 
s 3.117758750 _3_ MAC  --- 0 RTS 44 [260e 1 3 0] 
r 3.118111123 _1_ MAC  --- 0 RTS 44 [260e 1 3 0] 
s 3.118121123 _1_ MAC  --- 0 CTS 38 [24d4 3 0 0] 
r 3.118425495 _3_ MAC  --- 0 CTS 38 [24d4 3 0 0] 
s 3.118435495 _3_ MAC  --- 7 tcp 1138 [13a 1 3 800] ------- [0:0 1:0 31 1] [1 0] 1 0
r 3.127539868 _1_ MAC  --- 7 tcp 1080 [13a 1 3 800] ------- [0:0 1:0 31 1] [1 0] 2 0
s 3.127549868 _1_ MAC  --- 0 ACK 38 [0 3 0 0] 
r 3.127564868 _1_ RTR  --- 7 tcp 1080 [13a 1 3 800] ------- [0:0 1:0 31 1] [1 0] 2 0
Received a Packet. My ID : 1
r 3.127564868 _1_ AGT  --- 7 tcp 1040 [13a 1 3 800] ------- [0:0 1:0 31 1] [1 0] 2 0
s 3.127564868 _1_ AGT  --- 9 ack 40 [0 0 0 0] ------- [1:0 0:0 32 0] [1 0] 0 0
r 3.127564868 _1_ RTR  --- 9 ack 40 [0 0 0 0] ------- [1:0 0:0 32 0] [1 0] 0 0
Received a Packet. My ID : 1
Route Found: [(1) 3 0 ]
I am Node 1
Route Cache Hit: Trust value for Route # 0
Route Cache Hit: Route is [(1) 3 0 ]
Route Cache Hit: Route's trust value is 0.230000
Sending out Packet! My id : 1
SFESTs 3.127564868 _1_ 9 [1 -> 0] 1(1) to 3 [1 |3 0 ]
s 3.127564868 _1_ RTR  --- 9 ack 80 [0 0 0 0] ------- [1:0 0:0 32 3] [1 0] 0 0
r 3.127854241 _3_ MAC  --- 0 ACK 38 [0 3 0 0] 
s 3.127943868 _1_ MAC  --- 0 RTS 44 [6ce 3 1 0] 
s 3.128063868 _0_ MAC  --- 0 RTS 44 [260e 3 0 0] 
D 3.128064241 _3_ MAC  COL 0 RTS 44 [6ce 3 1 0] 
D 3.128416241 _3_ MAC  COL 0 RTS 44 [260e 3 0 0] 
s 3.129243868 _1_ MAC  --- 0 RTS 44 [6ce 3 1 0] 
r 3.129596241 _3_ MAC  --- 0 RTS 44 [6ce 3 1 0] 
s 3.129606241 _3_ MAC  --- 0 CTS 38 [594 1 0 0] 
r 3.129910613 _1_ MAC  --- 0 CTS 38 [594 1 0 0] 
s 3.129920613 _1_ MAC  --- 9 ack 138 [13a 3 1 800] ------- [1:0 0:0 32 3] [1 0] 0 0
r 3.131024986 _3_ MAC  --- 9 ack 80 [13a 3 1 800] ------- [1:0 0:0 32 3] [1 0] 1 0
s 3.131034986 _3_ MAC  --- 0 ACK 38 [0 1 0 0] 
r 3.131049986 _3_ RTR  --- 9 ack 80 [13a 3 1 800] ------- [1:0 0:0 32 3] [1 0] 1 0
Received a Packet. My ID : 3
Sending out Packet! My id : 3
f 3.131049986 _3_ RTR  --- 9 ack 80 [13a 3 1 800] ------- [1:0 0:0 31 0] [1 0] 1 0
r 3.131339359 _1_ MAC  --- 0 ACK 38 [0 1 0 0] 
s 3.131449359 _0_ MAC  --- 0 RTS 44 [260e 3 0 0] 
r 3.131801731 _3_ MAC  --- 0 RTS 44 [260e 3 0 0] 
s 3.131811731 _3_ MAC  --- 0 CTS 38 [24d4 0 0 0] 
r 3.132116104 _0_ MAC  --- 0 CTS 38 [24d4 0 0 0] 
s 3.132126104 _0_ MAC  --- 8 tcp 1138 [13a 3 0 800] ------- [0:0 1:0 32 3] [2 0] 0 0
r 3.141230477 _3_ MAC  --- 8 tcp 1080 [13a 3 0 800] ------- [0:0 1:0 32 3] [2 0] 1 0
s 3.141240477 _3_ MAC  --- 0 ACK 38 [0 0 0 0] 
r 3.141255477 _3_ RTR  --- 8 tcp 1080 [13a 3 0 800] ------- [0:0 1:0 32 3] [2 0] 1 0
Received a Packet. My ID : 3
Sending out Packet! My id : 3
f 3.141255477 _3_ RTR  --- 8 tcp 1080 [13a 3 0 800] ------- [0:0 1:0 31 1] [2 0] 1 0
r 3.141544849 _0_ MAC  --- 0 ACK 38 [0 0 0 0] 
s 3.142074477 _3_ MAC  --- 0 RTS 44 [6ce 0 3 0] 
r 3.142426849 _0_ MAC  --- 0 RTS 44 [6ce 0 3 0] 
s 3.142436849 _0_ MAC  --- 0 CTS 38 [594 3 0 0] 
r 3.142741222 _3_ MAC  --- 0 CTS 38 [594 3 0 0] 
s 3.142751222 _3_ MAC  --- 9 ack 138 [13a 0 3 800] ------- [1:0 0:0 31 0] [1 0] 1 0
r 3.143855595 _0_ MAC  --- 9 ack 80 [13a 0 3 800] ------- [1:0 0:0 31 0] [1 0] 2 0
s 3.143865595 _0_ MAC  --- 0 ACK 38 [0 3 0 0] 
r 3.143880595 _0_ RTR  --- 9 ack 80 [13a 0 3 800] ------- [1:0 0:0 31 0] [1 0] 2 0
Received a Packet. My ID : 0
r 3.143880595 _0_ AGT  --- 9 ack 40 [13a 0 3 800] ------- [1:0 0:0 31 0] [1 0] 2 0
s 3.143880595 _0_ AGT  --- 10 tcp 1040 [0 0 0 0] ------- [0:0 1:0 32 0] [3 0] 0 0
r 3.143880595 _0_ RTR  --- 10 tcp 1040 [0 0 0 0] ------- [0:0 1:0 32 0] [3 0] 0 0
Received a Packet. My ID : 0
Route Found: [(0) 3 1 ]
I am Node 0
Route Cache Hit: Trust value for Route # 0
Route Cache Hit: Route is [(0) 3 1 ]
Route Cache Hit: Route's trust value is 0.230000
Sending out Packet! My id : 0
SFs 3.143880595 _0_ 10 [0 -> 1] 1(0) to 3 
s 3.143880595 _0_ AGT  --- 11 tcp 1040 [0 0 0 0] ------- [0:0 1:0 32 0] [4 0] 0 0
r 3.143880595 _0_ RTR  --- 11 tcp 1040 [0 0 0 0] ------- [0:0 1:0 32 0] [4 0] 0 0
Received a Packet. My ID : 0
Route Found: [(0) 3 1 ]
I am Node 0
Route Cache Hit: Trust value for Route # 0
Route Cache Hit: Route is [(0) 3 1 ]
Route Cache Hit: Route's trust value is 0.230000
Sending out Packet! My id : 0
SFs 3.143880595 _0_ 11 [0 -> 1] 1(0) to 3 
s 3.143880595 _0_ RTR  --- 10 tcp 1060 [0 0 0 0] ------- [0:0 1:0 32 3] [3 0] 0 0
s 3.143880595 _0_ RTR  --- 11 tcp 1060 [0 0 0 0] ------- [0:0 1:0 32 3] [4 0] 0 0
r 3.144169967 _3_ MAC  --- 0 ACK 38 [0 3 0 0] 
s 3.144219595 _0_ MAC  --- 0 RTS 44 [256e 3 0 0] 
r 3.144571967 _3_ MAC  --- 0 RTS 44 [256e 3 0 0] 
s 3.144581967 _3_ MAC  --- 0 CTS 38 [2434 0 0 0] 
r 3.144886340 _0_ MAC  --- 0 CTS 38 [2434 0 0 0] 
s 3.144896340 _0_ MAC  --- 10 tcp 1118 [13a 3 0 800] ------- [0:0 1:0 32 3] [3 0] 0 0
r 3.153840713 _3_ MAC  --- 10 tcp 1060 [13a 3 0 800] ------- [0:0 1:0 32 3] [3 0] 1 0
s 3.153850713 _3_ MAC  --- 0 ACK 38 [0 0 0 0] 
r 3.153865713 _3_ RTR  --- 10 tcp 1060 [13a 3 0 800] ------- [0:0 1:0 32 3] [3 0] 1 0
Received a Packet. My ID : 3
SFf 3.153865713 _3_ 10 [0 -> 1] 1 to 1
f 3.153865713 _3_ RTR  --- 10 tcp 1060 [13a 3 0 800] ------- [0:0 1:0 31 1] [3 0] 1 0
r 3.154155085 _0_ MAC  --- 0 ACK 38 [0 0 0 0] 
s 3.154404713 _3_ MAC  --- 0 RTS 44 [260e 1 3 0] 
r 3.154757085 _1_ MAC  --- 0 RTS 44 [260e 1 3 0] 
s 3.154767085 _1_ MAC  --- 0 CTS 38 [24d4 3 0 0] 
r 3.155071458 _3_ MAC  --- 0 CTS 38 [24d4 3 0 0] 
s 3.155081458 _3_ MAC  --- 8 tcp 1138 [13a 1 3 800] ------- [0:0 1:0 31 1] [2 0] 1 0
r 3.164185831 _1_ MAC  --- 8 tcp 1080 [13a 1 3 800] ------- [0:0 1:0 31 1] [2 0] 2 0
s 3.164195831 _1_ MAC  --- 0 ACK 38 [0 3 0 0] 
r 3.164210831 _1_ RTR  --- 8 tcp 1080 [13a 1 3 800] ------- [0:0 1:0 31 1] [2 0] 2 0
Received a Packet. My ID : 1
r 3.164210831 _1_ AGT  --- 8 tcp 1040 [13a 1 3 800] ------- [0:0 1:0 31 1] [2 0] 2 0
s 3.164210831 _1_ AGT  --- 12 ack 40 [0 0 0 0] ------- [1:0 0:0 32 0] [2 0] 0 0
r 3.164210831 _1_ RTR  --- 12 ack 40 [0 0 0 0] ------- [1:0 0:0 32 0] [2 0] 0 0
Received a Packet. My ID : 1
Route Found: [(1) 3 0 ]
I am Node 1
Route Cache Hit: Trust value for Route # 0
Route Cache Hit: Route is [(1) 3 0 ]
Route Cache Hit: Route's trust value is 0.230000
Sending out Packet! My id : 1
SFESTs 3.164210831 _1_ 12 [1 -> 0] 1(1) to 3 [1 |3 0 ]
s 3.164210831 _1_ RTR  --- 12 ack 80 [0 0 0 0] ------- [1:0 0:0 32 3] [2 0] 0 0
r 3.164500203 _3_ MAC  --- 0 ACK 38 [0 3 0 0] 
s 3.164589831 _0_ MAC  --- 0 RTS 44 [256e 3 0 0] 
s 3.164929831 _1_ MAC  --- 0 RTS 44 [6ce 3 1 0] 
D 3.164930203 _3_ MAC  COL 0 RTS 44 [256e 3 0 0] 
D 3.165282203 _3_ MAC  COL 0 RTS 44 [6ce 3 1 0] 
s 3.165856203 _3_ MAC  --- 0 RTS 44 [256e 1 3 0] 
r 3.166208576 _1_ MAC  --- 0 RTS 44 [256e 1 3 0] 
s 3.166218576 _1_ MAC  --- 0 CTS 38 [2434 3 0 0] 
r 3.166522949 _3_ MAC  --- 0 CTS 38 [2434 3 0 0] 
s 3.166532949 _3_ MAC  --- 10 tcp 1118 [13a 1 3 800] ------- [0:0 1:0 31 1] [3 0] 1 0
r 3.175477321 _1_ MAC  --- 10 tcp 1060 [13a 1 3 800] ------- [0:0 1:0 31 1] [3 0] 2 0
s 3.175487321 _1_ MAC  --- 0 ACK 38 [0 3 0 0] 
r 3.175502321 _1_ RTR  --- 10 tcp 1060 [13a 1 3 800] ------- [0:0 1:0 31 1] [3 0] 2 0
Received a Packet. My ID : 1
r 3.175502321 _1_ AGT  --- 10 tcp 1040 [13a 1 3 800] ------- [0:0 1:0 31 1] [3 0] 2 0
s 3.175502321 _1_ AGT  --- 13 ack 40 [0 0 0 0] ------- [1:0 0:0 32 0] [3 0] 0 0
r 3.175502321 _1_ RTR  --- 13 ack 40 [0 0 0 0] ------- [1:0 0:0 32 0] [3 0] 0 0
Received a Packet. My ID : 1
Route Found: [(1) 3 0 ]
I am Node 1
Route Cache Hit: Trust value for Route # 0
Route Cache Hit: Route is [(1) 3 0 ]
Route Cache Hit: Route's trust value is 0.230000
Sending out Packet! My id : 1
SFs 3.175502321 _1_ 13 [1 -> 0] 1(0) to 3 
s 3.175502321 _1_ RTR  --- 13 ack 60 [0 0 0 0] ------- [1:0 0:0 32 3] [3 0] 0 0
r 3.175791694 _3_ MAC  --- 0 ACK 38 [0 3 0 0] 
s 3.176041321 _1_ MAC  --- 0 RTS 44 [6ce 3 1 0] 
s 3.176141321 _0_ MAC  --- 0 RTS 44 [256e 3 0 0] 
D 3.176141694 _3_ MAC  COL 0 RTS 44 [6ce 3 1 0] 
D 3.176493694 _3_ MAC  COL 0 RTS 44 [256e 3 0 0] 
s 3.177221321 _1_ MAC  --- 0 RTS 44 [6ce 3 1 0] 
r 3.177573694 _3_ MAC  --- 0 RTS 44 [6ce 3 1 0] 
s 3.177583694 _3_ MAC  --- 0 CTS 38 [594 1 0 0] 
r 3.177888067 _1_ MAC  --- 0 CTS 38 [594 1 0 0] 
s 3.177898067 _1_ MAC  --- 12 ack 138 [13a 3 1 800] ------- [1:0 0:0 32 3] [2 0] 0 0
r 3.179002440 _3_ MAC  --- 12 ack 80 [13a 3 1 800] ------- [1:0 0:0 32 3] [2 0] 1 0
s 3.179012440 _3_ MAC  --- 0 ACK 38 [0 1 0 0] 
r 3.179027440 _3_ RTR  --- 12 ack 80 [13a 3 1 800] ------- [1:0 0:0 32 3] [2 0] 1 0
Received a Packet. My ID : 3
Sending out Packet! My id : 3
f 3.179027440 _3_ RTR  --- 12 ack 80 [13a 3 1 800] ------- [1:0 0:0 31 0] [2 0] 1 0
r 3.179316812 _1_ MAC  --- 0 ACK 38 [0 1 0 0] 
s 3.179366440 _3_ MAC  --- 0 RTS 44 [6ce 0 3 0] 
r 3.179718812 _0_ MAC  --- 0 RTS 44 [6ce 0 3 0] 
s 3.179728812 _0_ MAC  --- 0 CTS 38 [594 3 0 0] 
r 3.180033185 _3_ MAC  --- 0 CTS 38 [594 3 0 0] 
s 3.180043185 _3_ MAC  --- 12 ack 138 [13a 0 3 800] ------- [1:0 0:0 31 0] [2 0] 1 0
r 3.181147558 _0_ MAC  --- 12 ack 80 [13a 0 3 800] ------- [1:0 0:0 31 0] [2 0] 2 0
s 3.181157558 _0_ MAC  --- 0 ACK 38 [0 3 0 0] 
r 3.181172558 _0_ RTR  --- 12 ack 80 [13a 0 3 800] ------- [1:0 0:0 31 0] [2 0] 2 0
Received a Packet. My ID : 0
r 3.181172558 _0_ AGT  --- 12 ack 40 [13a 0 3 800] ------- [1:0 0:0 31 0] [2 0] 2 0
s 3.181172558 _0_ AGT  --- 14 tcp 1040 [0 0 0 0] ------- [0:0 1:0 32 0] [5 0] 0 0
r 3.181172558 _0_ RTR  --- 14 tcp 1040 [0 0 0 0] ------- [0:0 1:0 32 0] [5 0] 0 0
Received a Packet. My ID : 0
Route Found: [(0) 3 1 ]
I am Node 0
Route Cache Hit: Trust value for Route # 0
Route Cache Hit: Route is [(0) 3 1 ]
Route Cache Hit: Route's trust value is 0.230000
Sending out Packet! My id : 0
SFs 3.181172558 _0_ 14 [0 -> 1] 1(0) to 3 
s 3.181172558 _0_ AGT  --- 15 tcp 1040 [0 0 0 0] ------- [0:0 1:0 32 0] [6 0] 0 0
r 3.181172558 _0_ RTR  --- 15 tcp 1040 [0 0 0 0] ------- [0:0 1:0 32 0] [6 0] 0 0
Received a Packet. My ID : 0
Route Found: [(0) 3 1 ]
I am Node 0
Route Cache Hit: Trust value for Route # 0
Route Cache Hit: Route is [(0) 3 1 ]
Route Cache Hit: Route's trust value is 0.230000
Sending out Packet! My id : 0
SFs 3.181172558 _0_ 15 [0 -> 1] 1(0) to 3 
s 3.181172558 _0_ RTR  --- 14 tcp 1060 [0 0 0 0] ------- [0:0 1:0 32 3] [5 0] 0 0
s 3.181172558 _0_ RTR  --- 15 tcp 1060 [0 0 0 0] ------- [0:0 1:0 32 3] [6 0] 0 0
r 3.181461930 _3_ MAC  --- 0 ACK 38 [0 3 0 0] 
s 3.181891558 _1_ MAC  --- 0 RTS 44 [62e 3 1 0] 
r 3.182243930 _3_ MAC  --- 0 RTS 44 [62e 3 1 0] 
s 3.182253930 _3_ MAC  --- 0 CTS 38 [4f4 1 0 0] 
r 3.182558303 _1_ MAC  --- 0 CTS 38 [4f4 1 0 0] 
s 3.182568303 _1_ MAC  --- 13 ack 118 [13a 3 1 800] ------- [1:0 0:0 32 3] [3 0] 0 0
r 3.183512676 _3_ MAC  --- 13 ack 60 [13a 3 1 800] ------- [1:0 0:0 32 3] [3 0] 1 0
s 3.183522676 _3_ MAC  --- 0 ACK 38 [0 1 0 0] 
r 3.183537676 _3_ RTR  --- 13 ack 60 [13a 3 1 800] ------- [1:0 0:0 32 3] [3 0] 1 0
Received a Packet. My ID : 3
SFf 3.183537676 _3_ 13 [1 -> 0] 1 to 0
f 3.183537676 _3_ RTR  --- 13 ack 60 [13a 3 1 800] ------- [1:0 0:0 31 0] [3 0] 1 0
r 3.183827048 _1_ MAC  --- 0 ACK 38 [0 1 0 0] 
s 3.184076676 _3_ MAC  --- 0 RTS 44 [62e 0 3 0] 
r 3.184429048 _0_ MAC  --- 0 RTS 44 [62e 0 3 0] 
s 3.184439048 _0_ MAC  --- 0 CTS 38 [4f4 3 0 0] 
r 3.184743421 _3_ MAC  --- 0 CTS 38 [4f4 3 0 0] 
s 3.184753421 _3_ MAC  --- 13 ack 118 [13a 0 3 800] ------- [1:0 0:0 31 0] [3 0] 1 0
r 3.185697794 _0_ MAC  --- 13 ack 60 [13a 0 3 800] ------- [1:0 0:0 31 0] [3 0] 2 0
s 3.185707794 _0_ MAC  --- 0 ACK 38 [0 3 0 0] 
r 3.185722794 _0_ RTR  --- 13 ack 60 [13a 0 3 800] ------- [1:0 0:0 31 0] [3 0] 2 0
Received a Packet. My ID : 0
r 3.185722794 _0_ AGT  --- 13 ack 40 [13a 0 3 800] ------- [1:0 0:0 31 0] [3 0] 2 0
s 3.185722794 _0_ AGT  --- 16 tcp 1040 [0 0 0 0] ------- [0:0 1:0 32 0] [7 0] 0 0
r 3.185722794 _0_ RTR  --- 16 tcp 1040 [0 0 0 0] ------- [0:0 1:0 32 0] [7 0] 0 0
Received a Packet. My ID : 0
Route Found: [(0) 3 1 ]
I am Node 0
Route Cache Hit: Trust value for Route # 0
Route Cache Hit: Route is [(0) 3 1 ]
Route Cache Hit: Route's trust value is 0.230000
Sending out Packet! My id : 0
SFs 3.185722794 _0_ 16 [0 -> 1] 1(0) to 3 
s 3.185722794 _0_ AGT  --- 17 tcp 1040 [0 0 0 0] ------- [0:0 1:0 32 0] [8 0] 0 0
r 3.185722794 _0_ RTR  --- 17 tcp 1040 [0 0 0 0] ------- [0:0 1:0 32 0] [8 0] 0 0
Received a Packet. My ID : 0
Route Found: [(0) 3 1 ]
I am Node 0
Route Cache Hit: Trust value for Route # 0
Route Cache Hit: Route is [(0) 3 1 ]
Route Cache Hit: Route's trust value is 0.230000
Sending out Packet! My id : 0
SFs 3.185722794 _0_ 17 [0 -> 1] 1(0) to 3 
s 3.185722794 _0_ RTR  --- 16 tcp 1060 [0 0 0 0] ------- [0:0 1:0 32 3] [7 0] 0 0
s 3.185722794 _0_ RTR  --- 17 tcp 1060 [0 0 0 0] ------- [0:0 1:0 32 3] [8 0] 0 0
r 3.186012166 _3_ MAC  --- 0 ACK 38 [0 3 0 0] 
s 3.186501794 _0_ MAC  --- 0 RTS 44 [256e 3 0 0] 
r 3.186854166 _3_ MAC  --- 0 RTS 44 [256e 3 0 0] 
s 3.186864166 _3_ MAC  --- 0 CTS 38 [2434 0 0 0] 
r 3.187168539 _0_ MAC  --- 0 CTS 38 [2434 0 0 0] 
s 3.187178539 _0_ MAC  --- 11 tcp 1118 [13a 3 0 800] ------- [0:0 1:0 32 3] [4 0] 0 0
r 3.196122912 _3_ MAC  --- 11 tcp 1060 [13a 3 0 800] ------- [0:0 1:0 32 3] [4 0] 1 0
s 3.196132912 _3_ MAC  --- 0 ACK 38 [0 0 0 0] 
r 3.196147912 _3_ RTR  --- 11 tcp 1060 [13a 3 0 800] ------- [0:0 1:0 32 3] [4 0] 1 0
Received a Packet. My ID : 3
SFf 3.196147912 _3_ 11 [0 -> 1] 1 to 1
f 3.196147912 _3_ RTR  --- 11 tcp 1060 [13a 3 0 800] ------- [0:0 1:0 31 1] [4 0] 1 0
r 3.196437284 _0_ MAC  --- 0 ACK 38 [0 0 0 0] 
s 3.196787284 _0_ MAC  --- 0 RTS 44 [256e 3 0 0] 
r 3.197139657 _3_ MAC  --- 0 RTS 44 [256e 3 0 0] 
s 3.197149657 _3_ MAC  --- 0 CTS 38 [2434 0 0 0] 
r 3.197454030 _0_ MAC  --- 0 CTS 38 [2434 0 0 0] 
s 3.197464030 _0_ MAC  --- 14 tcp 1118 [13a 3 0 800] ------- [0:0 1:0 32 3] [5 0] 0 0
r 3.206408402 _3_ MAC  --- 14 tcp 1060 [13a 3 0 800] ------- [0:0 1:0 32 3] [5 0] 1 0
s 3.206418402 _3_ MAC  --- 0 ACK 38 [0 0 0 0] 
r 3.206433402 _3_ RTR  --- 14 tcp 1060 [13a 3 0 800] ------- [0:0 1:0 32 3] [5 0] 1 0
Received a Packet. My ID : 3
SFf 3.206433402 _3_ 14 [0 -> 1] 1 to 1
f 3.206433402 _3_ RTR  --- 14 tcp 1060 [13a 3 0 800] ------- [0:0 1:0 31 1] [5 0] 1 0
r 3.206722775 _0_ MAC  --- 0 ACK 38 [0 0 0 0] 
s 3.207052775 _0_ MAC  --- 0 RTS 44 [256e 3 0 0] 
r 3.207405148 _3_ MAC  --- 0 RTS 44 [256e 3 0 0] 
s 3.207415148 _3_ MAC  --- 0 CTS 38 [2434 0 0 0] 
r 3.207719520 _0_ MAC  --- 0 CTS 38 [2434 0 0 0] 
s 3.207729520 _0_ MAC  --- 15 tcp 1118 [13a 3 0 800] ------- [0:0 1:0 32 3] [6 0] 0 0
r 3.216673893 _3_ MAC  --- 15 tcp 1060 [13a 3 0 800] ------- [0:0 1:0 32 3] [6 0] 1 0
s 3.216683893 _3_ MAC  --- 0 ACK 38 [0 0 0 0] 
r 3.216698893 _3_ RTR  --- 15 tcp 1060 [13a 3 0 800] ------- [0:0 1:0 32 3] [6 0] 1 0
Received a Packet. My ID : 3
SFf 3.216698893 _3_ 15 [0 -> 1] 1 to 1
f 3.216698893 _3_ RTR  --- 15 tcp 1060 [13a 3 0 800] ------- [0:0 1:0 31 1] [6 0] 1 0
r 3.216988266 _0_ MAC  --- 0 ACK 38 [0 0 0 0] 
s 3.217057893 _3_ MAC  --- 0 RTS 44 [256e 1 3 0] 
r 3.217410266 _1_ MAC  --- 0 RTS 44 [256e 1 3 0] 
s 3.217420266 _1_ MAC  --- 0 CTS 38 [2434 3 0 0] 
r 3.217724638 _3_ MAC  --- 0 CTS 38 [2434 3 0 0] 
s 3.217734638 _3_ MAC  --- 11 tcp 1118 [13a 1 3 800] ------- [0:0 1:0 31 1] [4 0] 1 0