Sconfig 0.00000 tap: on snoop: rts? on errs? on
Sconfig 0.00000 salvage: on !bd replies? on
Sconfig 0.00000 grat error: on grat reply: on
Sconfig 0.00000 $reply for props: on ring 0 search: on
Sconfig 0.00000 using MOBICACHE
MAC BEING SET to : 0 
MAC BEING SET to : 1 
MAC BEING SET to : 2 
MAC BEING SET to : 3 
Building Trust....
s 3.000000000 _0_ AGT  --- 0 tcp 40 [0 0 0 0] ------- [0:0 1:0 32 0] [0 0] 0 0
r 3.000000000 _0_ RTR  --- 0 tcp 40 [0 0 0 0] ------- [0:0 1:0 32 0] [0 0] 0 0
Route Not Found
Sending out Packet! My id : 0
Route used : [(0) ]
s 3.000000000 _1_ AGT  --- 2 tcp 40 [0 0 0 0] ------- [1:1 0:1 32 0] [0 0] 0 0
r 3.000000000 _1_ RTR  --- 2 tcp 40 [0 0 0 0] ------- [1:1 0:1 32 0] [0 0] 0 0
Route Not Found
Sending out Packet! My id : 1
Route used : [(1) ]
s 3.006005419 _0_ RTR  --- 1 DSR 32 [0 0 0 0] ------- [0:255 1:255 32 0] 1 [1 1] [0 1 0 0->0] [0 0 0 0->0]
s 3.006620419 _0_ MAC  --- 1 DSR 90 [0 ffffffff 0 800] ------- [0:255 1:255 32 0] 1 [1 1] [0 1 0 0->0] [0 0 0 0->0]
s 3.006837876 _1_ RTR  --- 3 DSR 32 [0 0 0 0] ------- [1:255 0:255 32 0] 1 [1 1] [0 1 0 0->0] [0 0 0 0->0]
s 3.007112876 _1_ MAC  --- 3 DSR 90 [0 ffffffff 1 800] ------- [1:255 0:255 32 0] 1 [1 1] [0 1 0 0->0] [0 0 0 0->0]
D 3.007113249 _3_ MAC  COL 1 DSR 90 [0 ffffffff 0 800] ------- [0:255 1:255 32 0] 1 [1 1] [0 1 0 0->0] [0 0 0 0->0]
D 3.007113249 _2_ MAC  COL 1 DSR 90 [0 ffffffff 0 800] ------- [0:255 1:255 32 0] 1 [1 1] [0 1 0 0->0] [0 0 0 0->0]
D 3.007833249 _3_ MAC  COL 3 DSR 90 [0 ffffffff 1 800] ------- [1:255 0:255 32 0] 1 [1 1] [0 1 0 0->0] [0 0 0 0->0]
D 3.007833249 _2_ MAC  COL 3 DSR 90 [0 ffffffff 1 800] ------- [1:255 0:255 32 0] 1 [1 1] [0 1 0 0->0] [0 0 0 0->0]
Route Not Found
Route Not Found
Sending out Packet! My id : 1
Route used : [(1) ]
s 3.042596654 _1_ RTR  --- 5 DSR 32 [0 0 0 0] ------- [1:255 0:255 32 0] 1 [1 2] [0 2 0 0->0] [0 0 0 0->0]
s 3.043231654 _1_ MAC  --- 5 DSR 90 [0 ffffffff 1 800] ------- [1:255 0:255 32 0] 1 [1 2] [0 2 0 0->0] [0 0 0 0->0]
r 3.043952027 _3_ MAC  --- 5 DSR 32 [0 ffffffff 1 800] ------- [1:255 0:255 32 0] 1 [1 2] [0 2 0 0->0] [0 0 0 0->0]
r 3.043952027 _2_ MAC  --- 5 DSR 32 [0 ffffffff 1 800] ------- [1:255 0:255 32 0] 1 [1 2] [0 2 0 0->0] [0 0 0 0->0]
r 3.043977027 _3_ RTR  --- 5 DSR 32 [0 ffffffff 1 800] ------- [1:255 0:255 32 0] 1 [1 2] [0 2 0 0->0] [0 0 0 0->0]
Received a Packet. My ID : 3
Path received : [(1) ] 
Packet Dest : 0 , Packet Source : 1
Route Not Found
Sending out Packet! My id : 3
Route used : [(1) 3 ]
r 3.043977027 _2_ RTR  --- 5 DSR 32 [0 ffffffff 1 800] ------- [1:255 0:255 32 0] 1 [1 2] [0 2 0 0->0] [0 0 0 0->0]
Received a Packet. My ID : 2
Path received : [(1) ] 
Packet Dest : 0 , Packet Source : 1
Route Not Found
Sending out Packet! My id : 2
Route used : [(1) 2 ]
f 3.048734192 _3_ RTR  --- 5 DSR 48 [0 ffffffff 1 800] ------- [1:255 0:255 32 0] 2 [1 2] [0 2 0 0->0] [0 0 0 0->0]
f 3.048824124 _2_ RTR  --- 5 DSR 48 [0 ffffffff 1 800] ------- [1:255 0:255 32 0] 2 [1 2] [0 2 0 0->0] [0 0 0 0->0]
s 3.048949192 _3_ MAC  --- 5 DSR 106 [0 ffffffff 3 800] ------- [1:255 0:255 32 0] 2 [1 2] [0 2 0 0->0] [0 0 0 0->0]
r 3.049797525 _2_ MAC  --- 5 DSR 48 [0 ffffffff 3 800] ------- [1:255 0:255 32 0] 2 [1 2] [0 2 0 0->0] [0 0 0 0->0]
r 3.049797565 _0_ MAC  --- 5 DSR 48 [0 ffffffff 3 800] ------- [1:255 0:255 32 0] 2 [1 2] [0 2 0 0->0] [0 0 0 0->0]
r 3.049797565 _1_ MAC  --- 5 DSR 48 [0 ffffffff 3 800] ------- [1:255 0:255 32 0] 2 [1 2] [0 2 0 0->0] [0 0 0 0->0]
r 3.049822525 _2_ RTR  --- 5 DSR 48 [0 ffffffff 3 800] ------- [1:255 0:255 32 0] 2 [1 2] [0 2 0 0->0] [0 0 0 0->0]
Received a Packet. My ID : 2
Path received : [(1) 3 ] 
Packet Dest : 0 , Packet Source : 1
r 3.049822565 _0_ RTR  --- 5 DSR 48 [0 ffffffff 3 800] ------- [1:255 0:255 32 0] 2 [1 2] [0 2 0 0->0] [0 0 0 0->0]
Received a Packet. My ID : 0
Path received : [(1) 3 ] 
Packet Dest : 0 , Packet Source : 1
Adding Route. My ID : 0 . Route : [0 3 (1) ] . Trust is 0.800000
r 3.049822565 _1_ RTR  --- 5 DSR 48 [0 ffffffff 3 800] ------- [1:255 0:255 32 0] 2 [1 2] [0 2 0 0->0] [0 0 0 0->0]
s 3.050287525 _2_ MAC  --- 5 DSR 106 [0 ffffffff 2 800] ------- [1:255 0:255 32 0] 2 [1 2] [0 2 0 0->0] [0 0 0 0->0]
r 3.051135859 _3_ MAC  --- 5 DSR 48 [0 ffffffff 2 800] ------- [1:255 0:255 32 0] 2 [1 2] [0 2 0 0->0] [0 0 0 0->0]
r 3.051135898 _0_ MAC  --- 5 DSR 48 [0 ffffffff 2 800] ------- [1:255 0:255 32 0] 2 [1 2] [0 2 0 0->0] [0 0 0 0->0]
r 3.051135898 _1_ MAC  --- 5 DSR 48 [0 ffffffff 2 800] ------- [1:255 0:255 32 0] 2 [1 2] [0 2 0 0->0] [0 0 0 0->0]
r 3.051160859 _3_ RTR  --- 5 DSR 48 [0 ffffffff 2 800] ------- [1:255 0:255 32 0] 2 [1 2] [0 2 0 0->0] [0 0 0 0->0]
Received a Packet. My ID : 3
Path received : [(1) 2 ] 
Packet Dest : 0 , Packet Source : 1
r 3.051160898 _0_ RTR  --- 5 DSR 48 [0 ffffffff 2 800] ------- [1:255 0:255 32 0] 2 [1 2] [0 2 0 0->0] [0 0 0 0->0]
Received a Packet. My ID : 0
Path received : [(1) 2 ] 
Packet Dest : 0 , Packet Source : 1
Adding Route. My ID : 0 . Route : [0 2 (1) ] . Trust is 0.800000
r 3.051160898 _1_ RTR  --- 5 DSR 48 [0 ffffffff 2 800] ------- [1:255 0:255 32 0] 2 [1 2] [0 2 0 0->0] [0 0 0 0->0]
I am Node 0
Forwarding Packet : Src 0 , Dst 1, Route : [(0) 2 1 ]
Sending out Packet! My id : 0
Route used : [(0) 2 1 ]
s 3.054197301 _0_ RTR  --- 7 DSR 52 [0 0 0 0] ------- [0:255 1:255 254 2] 3 [0 2] [1 2 3 1->0] [0 0 0 0->0]
s 3.054852301 _0_ MAC  --- 0 ARP 86 [0 ffffffff 0 806] ------- [REQUEST 0/0 0/2]
r 3.055540673 _2_ MAC  --- 0 ARP 28 [0 ffffffff 0 806] ------- [REQUEST 0/0 0/2]
r 3.055540673 _3_ MAC  --- 0 ARP 28 [0 ffffffff 0 806] ------- [REQUEST 0/0 0/2]
I am Node 0
Forwarding Packet : Src 0 , Dst 1, Route : [(0) 3 1 ]
Sending out Packet! My id : 0
Route used : [(0) 3 1 ]
s 3.055575668 _0_ RTR  --- 6 DSR 52 [0 0 0 0] ------- [0:255 1:255 254 3] 3 [0 2] [1 2 3 1->0] [0 0 0 0->0]
s 3.055595673 _2_ MAC  --- 0 RTS 44 [52e 0 2 0] 
r 3.055948046 _0_ MAC  --- 0 RTS 44 [52e 0 2 0] 
s 3.055958046 _0_ MAC  --- 0 CTS 38 [3f4 2 0 0] 
r 3.056262419 _2_ MAC  --- 0 CTS 38 [3f4 2 0 0] 
s 3.056272419 _2_ MAC  --- 0 ARP 86 [13a 0 2 806] ------- [REPLY 2/2 0/0]
r 3.056960791 _0_ MAC  --- 0 ARP 28 [13a 0 2 806] ------- [REPLY 2/2 0/0]
s 3.056970791 _0_ MAC  --- 0 ACK 38 [0 2 0 0] 
r 3.057275164 _2_ MAC  --- 0 ACK 38 [0 2 0 0] 
s 3.057564791 _0_ MAC  --- 0 ARP 86 [0 ffffffff 0 806] ------- [REQUEST 0/0 0/3]
r 3.058253164 _2_ MAC  --- 0 ARP 28 [0 ffffffff 0 806] ------- [REQUEST 0/0 0/3]
r 3.058253164 _3_ MAC  --- 0 ARP 28 [0 ffffffff 0 806] ------- [REQUEST 0/0 0/3]
s 3.058308164 _3_ MAC  --- 0 RTS 44 [52e 0 3 0] 
r 3.058660537 _0_ MAC  --- 0 RTS 44 [52e 0 3 0] 
s 3.058670537 _0_ MAC  --- 0 CTS 38 [3f4 3 0 0] 
r 3.058974909 _3_ MAC  --- 0 CTS 38 [3f4 3 0 0] 
s 3.058984909 _3_ MAC  --- 0 ARP 86 [13a 0 3 806] ------- [REPLY 3/3 0/0]
r 3.059673282 _0_ MAC  --- 0 ARP 28 [13a 0 3 806] ------- [REPLY 3/3 0/0]
s 3.059683282 _0_ MAC  --- 0 ACK 38 [0 3 0 0] 
r 3.059987655 _3_ MAC  --- 0 ACK 38 [0 3 0 0] 
s 3.060317282 _0_ MAC  --- 0 RTS 44 [5ee 2 0 0] 
r 3.060669655 _2_ MAC  --- 0 RTS 44 [5ee 2 0 0] 
s 3.060679655 _2_ MAC  --- 0 CTS 38 [4b4 0 0 0] 
r 3.060984027 _0_ MAC  --- 0 CTS 38 [4b4 0 0 0] 
s 3.060994027 _0_ MAC  --- 7 DSR 110 [13a 2 0 800] ------- [0:255 1:255 254 2] 3 [0 2] [1 2 3 1->0] [0 0 0 0->0]
r 3.061874400 _2_ MAC  --- 7 DSR 52 [13a 2 0 800] ------- [0:255 1:255 254 2] 3 [0 2] [1 2 3 1->0] [0 0 0 0->0]
s 3.061884400 _2_ MAC  --- 0 ACK 38 [0 0 0 0] 
r 3.061899400 _2_ RTR  --- 7 DSR 52 [13a 2 0 800] ------- [0:255 1:255 254 2] 3 [0 2] [1 2 3 1->0] [0 0 0 0->0]
Received a Packet. My ID : 2
Path received : [0 (2) 1 ] 
Packet Dest : 1 , Packet Source : 0
I am Node 2
Forwarding Packet : Src 0 , Dst 1, Route : [0 (2) 1 ]
Sending out Packet! My id : 2
Route used : [0 (2) 1 ]
f 3.061899400 _2_ RTR  --- 7 DSR 52 [13a 2 0 800] ------- [0:255 1:255 253 1] 3 [0 2] [1 2 3 1->0] [0 0 0 0->0]
r 3.062188773 _0_ MAC  --- 0 ACK 38 [0 0 0 0] 
s 3.062358773 _0_ MAC  --- 0 RTS 44 [5ee 3 0 0] 
r 3.062711145 _3_ MAC  --- 0 RTS 44 [5ee 3 0 0] 
s 3.062721145 _3_ MAC  --- 0 CTS 38 [4b4 0 0 0] 
r 3.063025518 _0_ MAC  --- 0 CTS 38 [4b4 0 0 0] 
s 3.063035518 _0_ MAC  --- 6 DSR 110 [13a 3 0 800] ------- [0:255 1:255 254 3] 3 [0 2] [1 2 3 1->0] [0 0 0 0->0]
r 3.063915891 _3_ MAC  --- 6 DSR 52 [13a 3 0 800] ------- [0:255 1:255 254 3] 3 [0 2] [1 2 3 1->0] [0 0 0 0->0]
s 3.063925891 _3_ MAC  --- 0 ACK 38 [0 0 0 0] 
r 3.063940891 _3_ RTR  --- 6 DSR 52 [13a 3 0 800] ------- [0:255 1:255 254 3] 3 [0 2] [1 2 3 1->0] [0 0 0 0->0]
Received a Packet. My ID : 3
Path received : [0 (3) 1 ] 
Packet Dest : 1 , Packet Source : 0
I am Node 3
Forwarding Packet : Src 0 , Dst 1, Route : [0 (3) 1 ]
Sending out Packet! My id : 3
Route used : [0 (3) 1 ]
f 3.063940891 _3_ RTR  --- 6 DSR 52 [13a 3 0 800] ------- [0:255 1:255 253 1] 3 [0 2] [1 2 3 1->0] [0 0 0 0->0]
r 3.064230263 _0_ MAC  --- 0 ACK 38 [0 0 0 0] 
s 3.064439891 _3_ MAC  --- 0 ARP 86 [0 ffffffff 3 806] ------- [REQUEST 3/3 0/1]
r 3.065128224 _2_ MAC  --- 0 ARP 28 [0 ffffffff 3 806] ------- [REQUEST 3/3 0/1]
r 3.065128263 _0_ MAC  --- 0 ARP 28 [0 ffffffff 3 806] ------- [REQUEST 3/3 0/1]
r 3.065128263 _1_ MAC  --- 0 ARP 28 [0 ffffffff 3 806] ------- [REQUEST 3/3 0/1]
s 3.065183263 _1_ MAC  --- 0 RTS 44 [52e 3 1 0] 
r 3.065535636 _3_ MAC  --- 0 RTS 44 [52e 3 1 0] 
s 3.065545636 _3_ MAC  --- 0 CTS 38 [3f4 1 0 0] 
r 3.065850009 _1_ MAC  --- 0 CTS 38 [3f4 1 0 0] 
s 3.065860009 _1_ MAC  --- 0 ARP 86 [13a 3 1 806] ------- [REPLY 1/1 3/3]
r 3.066548381 _3_ MAC  --- 0 ARP 28 [13a 3 1 806] ------- [REPLY 1/1 3/3]
s 3.066558381 _3_ MAC  --- 0 ACK 38 [0 1 0 0] 
r 3.066862754 _1_ MAC  --- 0 ACK 38 [0 1 0 0] 
s 3.067152715 _2_ MAC  --- 0 ARP 86 [0 ffffffff 2 806] ------- [REQUEST 2/2 0/1]
r 3.067841048 _3_ MAC  --- 0 ARP 28 [0 ffffffff 2 806] ------- [REQUEST 2/2 0/1]
r 3.067841088 _0_ MAC  --- 0 ARP 28 [0 ffffffff 2 806] ------- [REQUEST 2/2 0/1]
r 3.067841088 _1_ MAC  --- 0 ARP 28 [0 ffffffff 2 806] ------- [REQUEST 2/2 0/1]
s 3.068051088 _1_ MAC  --- 0 RTS 44 [52e 2 1 0] 
r 3.068403460 _2_ MAC  --- 0 RTS 44 [52e 2 1 0] 
s 3.068413460 _2_ MAC  --- 0 CTS 38 [3f4 1 0 0] 
r 3.068717833 _1_ MAC  --- 0 CTS 38 [3f4 1 0 0] 
s 3.068727833 _1_ MAC  --- 0 ARP 86 [13a 2 1 806] ------- [REPLY 1/1 2/2]
r 3.069416206 _2_ MAC  --- 0 ARP 28 [13a 2 1 806] ------- [REPLY 1/1 2/2]
s 3.069426206 _2_ MAC  --- 0 ACK 38 [0 1 0 0] 
r 3.069730578 _1_ MAC  --- 0 ACK 38 [0 1 0 0] 
s 3.069860539 _3_ MAC  --- 0 RTS 44 [5ee 1 3 0] 
r 3.070212912 _1_ MAC  --- 0 RTS 44 [5ee 1 3 0] 
s 3.070222912 _1_ MAC  --- 0 CTS 38 [4b4 3 0 0] 
r 3.070527284 _3_ MAC  --- 0 CTS 38 [4b4 3 0 0] 
s 3.070537284 _3_ MAC  --- 6 DSR 110 [13a 1 3 800] ------- [0:255 1:255 253 1] 3 [0 2] [1 2 3 1->0] [0 0 0 0->0]
r 3.071417657 _1_ MAC  --- 6 DSR 52 [13a 1 3 800] ------- [0:255 1:255 253 1] 3 [0 2] [1 2 3 1->0] [0 0 0 0->0]
s 3.071427657 _1_ MAC  --- 0 ACK 38 [0 3 0 0] 
r 3.071442657 _1_ RTR  --- 6 DSR 52 [13a 1 3 800] ------- [0:255 1:255 253 1] 3 [0 2] [1 2 3 1->0] [0 0 0 0->0]
Received a Packet. My ID : 1
Path received : [0 3 (1) ] 
Packet Dest : 1 , Packet Source : 0
Adding Route. My ID : 1 . Route : [(1) 3 0 ] . Trust is 0.800000
Route Found: [(1) 3 0 ]
I am Node 1
Route Cache Hit: Trust value for Route # 0
Route Cache Hit: Route is [(1) 3 0 ]
Route Cache Hit: Route's trust value is 0.800000
SFESTs 3.071442657 _1_ 2 [1 -> 0] 1(1) to 3 [1 |3 0 ]
Sending out Packet! My id : 1
Route used : [(1) 3 0 ]
s 3.071442657 _1_ RTR  --- 2 tcp 80 [0 0 0 0] ------- [1:1 0:1 32 3] [0 0] 0 0
r 3.071732030 _3_ MAC  --- 0 ACK 38 [0 3 0 0] 
s 3.071862030 _2_ MAC  --- 0 RTS 44 [5ee 1 2 0] 
r 3.072214402 _1_ MAC  --- 0 RTS 44 [5ee 1 2 0] 
s 3.072224402 _1_ MAC  --- 0 CTS 38 [4b4 2 0 0] 
r 3.072528775 _2_ MAC  --- 0 CTS 38 [4b4 2 0 0] 
s 3.072538775 _2_ MAC  --- 7 DSR 110 [13a 1 2 800] ------- [0:255 1:255 253 1] 3 [0 2] [1 2 3 1->0] [0 0 0 0->0]
r 3.073419148 _1_ MAC  --- 7 DSR 52 [13a 1 2 800] ------- [0:255 1:255 253 1] 3 [0 2] [1 2 3 1->0] [0 0 0 0->0]
s 3.073429148 _1_ MAC  --- 0 ACK 38 [0 2 0 0] 
r 3.073444148 _1_ RTR  --- 7 DSR 52 [13a 1 2 800] ------- [0:255 1:255 253 1] 3 [0 2] [1 2 3 1->0] [0 0 0 0->0]
Received a Packet. My ID : 1
Path received : [0 2 (1) ] 
Packet Dest : 1 , Packet Source : 0
Adding Route. My ID : 1 . Route : [(1) 2 0 ] . Trust is 0.800000
r 3.073733520 _2_ MAC  --- 0 ACK 38 [0 2 0 0] 
s 3.074043148 _1_ MAC  --- 0 RTS 44 [6ce 3 1 0] 
r 3.074395520 _3_ MAC  --- 0 RTS 44 [6ce 3 1 0] 
s 3.074405520 _3_ MAC  --- 0 CTS 38 [594 1 0 0] 
r 3.074709893 _1_ MAC  --- 0 CTS 38 [594 1 0 0] 
s 3.074719893 _1_ MAC  --- 2 tcp 138 [13a 3 1 800] ------- [1:1 0:1 32 3] [0 0] 0 0
r 3.075824266 _3_ MAC  --- 2 tcp 80 [13a 3 1 800] ------- [1:1 0:1 32 3] [0 0] 1 0
s 3.075834266 _3_ MAC  --- 0 ACK 38 [0 1 0 0] 
r 3.075849266 _3_ RTR  --- 2 tcp 80 [13a 3 1 800] ------- [1:1 0:1 32 3] [0 0] 1 0
Received a Packet. My ID : 3
Path received : [1 (3) 0 ] 
Packet Dest : 0 , Packet Source : 1
I am Node 3
Forwarding Packet : Src 1 , Dst 0, Route : [1 (3) 0 ]
Sending out Packet! My id : 3
Route used : [1 (3) 0 ]
f 3.075849266 _3_ RTR  --- 2 tcp 80 [13a 3 1 800] ------- [1:1 0:1 31 0] [0 0] 1 0
r 3.076138638 _1_ MAC  --- 0 ACK 38 [0 1 0 0] 
s 3.076448266 _3_ MAC  --- 0 RTS 44 [6ce 0 3 0] 
r 3.076800638 _0_ MAC  --- 0 RTS 44 [6ce 0 3 0] 
s 3.076810638 _0_ MAC  --- 0 CTS 38 [594 3 0 0] 
Route Found: [(0) 3 1 ]
I am Node 0
Route Cache Hit: Trust value for Route # 0
Route Cache Hit: Route is [(0) 3 1 ]
Route Cache Hit: Route's trust value is 0.800000
SFESTs 3.077071675 _0_ 0 [0 -> 1] 1(1) to 3 [0 |3 1 ]
Sending out Packet! My id : 0
Route used : [(0) 3 1 ]
s 3.077071675 _0_ RTR  --- 0 tcp 80 [0 0 0 0] ------- [0:0 1:0 32 3] [0 0] 0 0
r 3.077115011 _3_ MAC  --- 0 CTS 38 [594 3 0 0] 
s 3.077125011 _3_ MAC  --- 2 tcp 138 [13a 0 3 800] ------- [1:1 0:1 31 0] [0 0] 1 0
r 3.078229384 _0_ MAC  --- 2 tcp 80 [13a 0 3 800] ------- [1:1 0:1 31 0] [0 0] 2 0
s 3.078239384 _0_ MAC  --- 0 ACK 38 [0 3 0 0] 
r 3.078254384 _0_ RTR  --- 2 tcp 80 [13a 0 3 800] ------- [1:1 0:1 31 0] [0 0] 2 0
Received a Packet. My ID : 0
Path received : [1 3 (0) ] 
Packet Dest : 0 , Packet Source : 1
r 3.078254384 _0_ AGT  --- 2 tcp 40 [13a 0 3 800] ------- [1:1 0:1 31 0] [0 0] 2 0
s 3.078254384 _0_ AGT  --- 8 ack 40 [0 0 0 0] ------- [0:1 1:1 32 0] [0 0] 0 0
r 3.078254384 _0_ RTR  --- 8 ack 40 [0 0 0 0] ------- [0:1 1:1 32 0] [0 0] 0 0
Route Found: [(0) 3 1 ]
I am Node 0
Route Cache Hit: Trust value for Route # 0
Route Cache Hit: Route is [(0) 3 1 ]
Route Cache Hit: Route's trust value is 0.800000
SFESTs 3.078254384 _0_ 8 [0 -> 1] 1(1) to 3 [0 |3 1 ]
Sending out Packet! My id : 0
Route used : [(0) 3 1 ]
s 3.078254384 _0_ RTR  --- 8 ack 80 [0 0 0 0] ------- [0:1 1:1 32 3] [0 0] 0 0
r 3.078543756 _3_ MAC  --- 0 ACK 38 [0 3 0 0] 
s 3.079093384 _0_ MAC  --- 0 RTS 44 [6ce 3 0 0] 
r 3.079445756 _3_ MAC  --- 0 RTS 44 [6ce 3 0 0] 
s 3.079455756 _3_ MAC  --- 0 CTS 38 [594 0 0 0] 
r 3.079760129 _0_ MAC  --- 0 CTS 38 [594 0 0 0] 
s 3.079770129 _0_ MAC  --- 0 tcp 138 [13a 3 0 800] ------- [0:0 1:0 32 3] [0 0] 0 0
r 3.080874502 _3_ MAC  --- 0 tcp 80 [13a 3 0 800] ------- [0:0 1:0 32 3] [0 0] 1 0
s 3.080884502 _3_ MAC  --- 0 ACK 38 [0 0 0 0] 
r 3.080899502 _3_ RTR  --- 0 tcp 80 [13a 3 0 800] ------- [0:0 1:0 32 3] [0 0] 1 0
Received a Packet. My ID : 3
Path received : [0 (3) 1 ] 
Packet Dest : 1 , Packet Source : 0
I am Node 3
Forwarding Packet : Src 0 , Dst 1, Route : [0 (3) 1 ]
Sending out Packet! My id : 3
Route used : [0 (3) 1 ]
f 3.080899502 _3_ RTR  --- 0 tcp 80 [13a 3 0 800] ------- [0:0 1:0 31 1] [0 0] 1 0
r 3.081188874 _0_ MAC  --- 0 ACK 38 [0 0 0 0] 
s 3.081318502 _3_ MAC  --- 0 RTS 44 [6ce 1 3 0] 
r 3.081670874 _1_ MAC  --- 0 RTS 44 [6ce 1 3 0] 
s 3.081680874 _1_ MAC  --- 0 CTS 38 [594 3 0 0] 
r 3.081985247 _3_ MAC  --- 0 CTS 38 [594 3 0 0] 
s 3.081995247 _3_ MAC  --- 0 tcp 138 [13a 1 3 800] ------- [0:0 1:0 31 1] [0 0] 1 0
r 3.083099620 _1_ MAC  --- 0 tcp 80 [13a 1 3 800] ------- [0:0 1:0 31 1] [0 0] 2 0
s 3.083109620 _1_ MAC  --- 0 ACK 38 [0 3 0 0] 
r 3.083124620 _1_ RTR  --- 0 tcp 80 [13a 1 3 800] ------- [0:0 1:0 31 1] [0 0] 2 0
Received a Packet. My ID : 1
Path received : [0 3 (1) ] 
Packet Dest : 1 , Packet Source : 0
r 3.083124620 _1_ AGT  --- 0 tcp 40 [13a 1 3 800] ------- [0:0 1:0 31 1] [0 0] 2 0
s 3.083124620 _1_ AGT  --- 9 ack 40 [0 0 0 0] ------- [1:0 0:0 32 0] [0 0] 0 0
r 3.083124620 _1_ RTR  --- 9 ack 40 [0 0 0 0] ------- [1:0 0:0 32 0] [0 0] 0 0
Route Found: [(1) 3 0 ]
I am Node 1
Route Cache Hit: Trust value for Route # 0
Route Cache Hit: Route is [(1) 3 0 ]
Route Cache Hit: Route's trust value is 0.800000
SFESTs 3.083124620 _1_ 9 [1 -> 0] 1(1) to 3 [1 |3 0 ]
Sending out Packet! My id : 1
Route used : [(1) 3 0 ]
s 3.083124620 _1_ RTR  --- 9 ack 80 [0 0 0 0] ------- [1:0 0:0 32 3] [0 0] 0 0
r 3.083413992 _3_ MAC  --- 0 ACK 38 [0 3 0 0] 
s 3.083503620 _1_ MAC  --- 0 RTS 44 [6ce 3 1 0] 
s 3.083623620 _0_ MAC  --- 0 RTS 44 [6ce 3 0 0] 
D 3.083623992 _3_ MAC  COL 0 RTS 44 [6ce 3 1 0] 
D 3.083975992 _3_ MAC  COL 0 RTS 44 [6ce 3 0 0] 
s 3.084683620 _1_ MAC  --- 0 RTS 44 [6ce 3 1 0] 
r 3.085035992 _3_ MAC  --- 0 RTS 44 [6ce 3 1 0] 
s 3.085045992 _3_ MAC  --- 0 CTS 38 [594 1 0 0] 
r 3.085350365 _1_ MAC  --- 0 CTS 38 [594 1 0 0] 
s 3.085360365 _1_ MAC  --- 9 ack 138 [13a 3 1 800] ------- [1:0 0:0 32 3] [0 0] 0 0
r 3.086464738 _3_ MAC  --- 9 ack 80 [13a 3 1 800] ------- [1:0 0:0 32 3] [0 0] 1 0
s 3.086474738 _3_ MAC  --- 0 ACK 38 [0 1 0 0] 
r 3.086489738 _3_ RTR  --- 9 ack 80 [13a 3 1 800] ------- [1:0 0:0 32 3] [0 0] 1 0
Received a Packet. My ID : 3
Path received : [1 (3) 0 ] 
Packet Dest : 0 , Packet Source : 1
I am Node 3
Forwarding Packet : Src 1 , Dst 0, Route : [1 (3) 0 ]
Sending out Packet! My id : 3
Route used : [1 (3) 0 ]
f 3.086489738 _3_ RTR  --- 9 ack 80 [13a 3 1 800] ------- [1:0 0:0 31 0] [0 0] 1 0
r 3.086779110 _1_ MAC  --- 0 ACK 38 [0 1 0 0] 
s 3.086968738 _3_ MAC  --- 0 RTS 44 [6ce 0 3 0] 
r 3.087321110 _0_ MAC  --- 0 RTS 44 [6ce 0 3 0] 
s 3.087331110 _0_ MAC  --- 0 CTS 38 [594 3 0 0] 
r 3.087635483 _3_ MAC  --- 0 CTS 38 [594 3 0 0] 
s 3.087645483 _3_ MAC  --- 9 ack 138 [13a 0 3 800] ------- [1:0 0:0 31 0] [0 0] 1 0
r 3.088749856 _0_ MAC  --- 9 ack 80 [13a 0 3 800] ------- [1:0 0:0 31 0] [0 0] 2 0
s 3.088759856 _0_ MAC  --- 0 ACK 38 [0 3 0 0] 
r 3.088774856 _0_ RTR  --- 9 ack 80 [13a 0 3 800] ------- [1:0 0:0 31 0] [0 0] 2 0
Received a Packet. My ID : 0
Path received : [1 3 (0) ] 
Packet Dest : 0 , Packet Source : 1
r 3.088774856 _0_ AGT  --- 9 ack 40 [13a 0 3 800] ------- [1:0 0:0 31 0] [0 0] 2 0
s 3.088774856 _0_ AGT  --- 10 tcp 1040 [0 0 0 0] ------- [0:0 1:0 32 0] [1 0] 0 0
r 3.088774856 _0_ RTR  --- 10 tcp 1040 [0 0 0 0] ------- [0:0 1:0 32 0] [1 0] 0 0
Route Found: [(0) 3 1 ]
I am Node 0
Route Cache Hit: Trust value for Route # 0
Route Cache Hit: Route is [(0) 3 1 ]
Route Cache Hit: Route's trust value is 0.800000
SFESTs 3.088774856 _0_ 10 [0 -> 1] 1(1) to 3 [0 |3 1 ]
Sending out Packet! My id : 0
Route used : [(0) 3 1 ]
s 3.088774856 _0_ AGT  --- 11 tcp 1040 [0 0 0 0] ------- [0:0 1:0 32 0] [2 0] 0 0
r 3.088774856 _0_ RTR  --- 11 tcp 1040 [0 0 0 0] ------- [0:0 1:0 32 0] [2 0] 0 0
Route Found: [(0) 3 1 ]
I am Node 0
Route Cache Hit: Trust value for Route # 0
Route Cache Hit: Route is [(0) 3 1 ]
Route Cache Hit: Route's trust value is 0.800000
SFs 3.088774856 _0_ 11 [0 -> 1] 1(0) to 3 
Sending out Packet! My id : 0
Route used : [(0) 3 1 ]
s 3.088774856 _0_ RTR  --- 10 tcp 1080 [0 0 0 0] ------- [0:0 1:0 32 3] [1 0] 0 0
s 3.088774856 _0_ RTR  --- 11 tcp 1060 [0 0 0 0] ------- [0:0 1:0 32 3] [2 0] 0 0
r 3.089064229 _3_ MAC  --- 0 ACK 38 [0 3 0 0] 
s 3.089313856 _0_ MAC  --- 0 RTS 44 [6ce 3 0 0] 
r 3.089666229 _3_ MAC  --- 0 RTS 44 [6ce 3 0 0] 
s 3.089676229 _3_ MAC  --- 0 CTS 38 [594 0 0 0] 
r 3.089980601 _0_ MAC  --- 0 CTS 38 [594 0 0 0] 
s 3.089990601 _0_ MAC  --- 8 ack 138 [13a 3 0 800] ------- [0:1 1:1 32 3] [0 0] 0 0
r 3.091094974 _3_ MAC  --- 8 ack 80 [13a 3 0 800] ------- [0:1 1:1 32 3] [0 0] 1 0
s 3.091104974 _3_ MAC  --- 0 ACK 38 [0 0 0 0] 
r 3.091119974 _3_ RTR  --- 8 ack 80 [13a 3 0 800] ------- [0:1 1:1 32 3] [0 0] 1 0
Received a Packet. My ID : 3
Path received : [0 (3) 1 ] 
Packet Dest : 1 , Packet Source : 0
I am Node 3
Forwarding Packet : Src 0 , Dst 1, Route : [0 (3) 1 ]
Sending out Packet! My id : 3
Route used : [0 (3) 1 ]
f 3.091119974 _3_ RTR  --- 8 ack 80 [13a 3 0 800] ------- [0:1 1:1 31 1] [0 0] 1 0
r 3.091409347 _0_ MAC  --- 0 ACK 38 [0 0 0 0] 
s 3.091498974 _3_ MAC  --- 0 RTS 44 [6ce 1 3 0] 
r 3.091851347 _1_ MAC  --- 0 RTS 44 [6ce 1 3 0] 
s 3.091861347 _1_ MAC  --- 0 CTS 38 [594 3 0 0] 
r 3.092165719 _3_ MAC  --- 0 CTS 38 [594 3 0 0] 
s 3.092175719 _3_ MAC  --- 8 ack 138 [13a 1 3 800] ------- [0:1 1:1 31 1] [0 0] 1 0
r 3.093280092 _1_ MAC  --- 8 ack 80 [13a 1 3 800] ------- [0:1 1:1 31 1] [0 0] 2 0
s 3.093290092 _1_ MAC  --- 0 ACK 38 [0 3 0 0] 
r 3.093305092 _1_ RTR  --- 8 ack 80 [13a 1 3 800] ------- [0:1 1:1 31 1] [0 0] 2 0
Received a Packet. My ID : 1
Path received : [0 3 (1) ] 
Packet Dest : 1 , Packet Source : 0
r 3.093305092 _1_ AGT  --- 8 ack 40 [13a 1 3 800] ------- [0:1 1:1 31 1] [0 0] 2 0
s 3.093305092 _1_ AGT  --- 12 tcp 1040 [0 0 0 0] ------- [1:1 0:1 32 0] [1 0] 0 0
r 3.093305092 _1_ RTR  --- 12 tcp 1040 [0 0 0 0] ------- [1:1 0:1 32 0] [1 0] 0 0
Route Found: [(1) 3 0 ]
I am Node 1
Route Cache Hit: Trust value for Route # 0
Route Cache Hit: Route is [(1) 3 0 ]
Route Cache Hit: Route's trust value is 0.800000
SFESTs 3.093305092 _1_ 12 [1 -> 0] 1(1) to 3 [1 |3 0 ]
Sending out Packet! My id : 1
Route used : [(1) 3 0 ]
s 3.093305092 _1_ AGT  --- 13 tcp 1040 [0 0 0 0] ------- [1:1 0:1 32 0] [2 0] 0 0
r 3.093305092 _1_ RTR  --- 13 tcp 1040 [0 0 0 0] ------- [1:1 0:1 32 0] [2 0] 0 0
Route Found: [(1) 3 0 ]
I am Node 1
Route Cache Hit: Trust value for Route # 0
Route Cache Hit: Route is [(1) 3 0 ]
Route Cache Hit: Route's trust value is 0.800000
SFs 3.093305092 _1_ 13 [1 -> 0] 1(0) to 3 
Sending out Packet! My id : 1
Route used : [(1) 3 0 ]
s 3.093305092 _1_ RTR  --- 12 tcp 1080 [0 0 0 0] ------- [1:1 0:1 32 3] [1 0] 0 0
s 3.093305092 _1_ RTR  --- 13 tcp 1060 [0 0 0 0] ------- [1:1 0:1 32 3] [2 0] 0 0
r 3.093594465 _3_ MAC  --- 0 ACK 38 [0 3 0 0] 
s 3.094044092 _0_ MAC  --- 0 RTS 44 [260e 3 0 0] 
s 3.094244092 _1_ MAC  --- 0 RTS 44 [260e 3 1 0] 
D 3.094244465 _3_ MAC  COL 0 RTS 44 [260e 3 0 0] 
D 3.094596465 _3_ MAC  COL 0 RTS 44 [260e 3 1 0] 
s 3.094984092 _0_ MAC  --- 0 RTS 44 [260e 3 0 0] 
r 3.095336465 _3_ MAC  --- 0 RTS 44 [260e 3 0 0] 
s 3.095346465 _3_ MAC  --- 0 CTS 38 [24d4 0 0 0] 
r 3.095650837 _0_ MAC  --- 0 CTS 38 [24d4 0 0 0] 
s 3.095660837 _0_ MAC  --- 10 tcp 1138 [13a 3 0 800] ------- [0:0 1:0 32 3] [1 0] 0 0
r 3.104765210 _3_ MAC  --- 10 tcp 1080 [13a 3 0 800] ------- [0:0 1:0 32 3] [1 0] 1 0
s 3.104775210 _3_ MAC  --- 0 ACK 38 [0 0 0 0] 
r 3.104790210 _3_ RTR  --- 10 tcp 1080 [13a 3 0 800] ------- [0:0 1:0 32 3] [1 0] 1 0
Received a Packet. My ID : 3
Path received : [0 (3) 1 ] 
Packet Dest : 1 , Packet Source : 0
I am Node 3
Forwarding Packet : Src 0 , Dst 1, Route : [0 (3) 1 ]
Sending out Packet! My id : 3
Route used : [0 (3) 1 ]
f 3.104790210 _3_ RTR  --- 10 tcp 1080 [13a 3 0 800] ------- [0:0 1:0 31 1] [1 0] 1 0
r 3.105079583 _0_ MAC  --- 0 ACK 38 [0 0 0 0] 
s 3.105129583 _0_ MAC  --- 0 RTS 44 [256e 3 0 0] 
r 3.105481955 _3_ MAC  --- 0 RTS 44 [256e 3 0 0] 
s 3.105491955 _3_ MAC  --- 0 CTS 38 [2434 0 0 0] 
r 3.105796328 _0_ MAC  --- 0 CTS 38 [2434 0 0 0] 
s 3.105806328 _0_ MAC  --- 11 tcp 1118 [13a 3 0 800] ------- [0:0 1:0 32 3] [2 0] 0 0
r 3.114750701 _3_ MAC  --- 11 tcp 1060 [13a 3 0 800] ------- [0:0 1:0 32 3] [2 0] 1 0
s 3.114760701 _3_ MAC  --- 0 ACK 38 [0 0 0 0] 
r 3.114775701 _3_ RTR  --- 11 tcp 1060 [13a 3 0 800] ------- [0:0 1:0 32 3] [2 0] 1 0
Received a Packet. My ID : 3
Path received : [<empty path>] 
Packet Dest : 1 , Packet Source : 0
SFf 3.114775701 _3_ 11 [0 -> 1] 1 to 1
f 3.114775701 _3_ RTR  --- 11 tcp 1060 [13a 3 0 800] ------- [0:0 1:0 31 1] [2 0] 1 0
r 3.115065073 _0_ MAC  --- 0 ACK 38 [0 0 0 0] 
s 3.115495073 _1_ MAC  --- 0 RTS 44 [260e 3 1 0] 
r 3.115847446 _3_ MAC  --- 0 RTS 44 [260e 3 1 0] 
s 3.115857446 _3_ MAC  --- 0 CTS 38 [24d4 1 0 0] 
r 3.116161819 _1_ MAC  --- 0 CTS 38 [24d4 1 0 0] 
s 3.116171819 _1_ MAC  --- 12 tcp 1138 [13a 3 1 800] ------- [1:1 0:1 32 3] [1 0] 0 0
r 3.125276191 _3_ MAC  --- 12 tcp 1080 [13a 3 1 800] ------- [1:1 0:1 32 3] [1 0] 1 0
s 3.125286191 _3_ MAC  --- 0 ACK 38 [0 1 0 0] 
r 3.125301191 _3_ RTR  --- 12 tcp 1080 [13a 3 1 800] ------- [1:1 0:1 32 3] [1 0] 1 0
Received a Packet. My ID : 3
Path received : [1 (3) 0 ] 
Packet Dest : 0 , Packet Source : 1
I am Node 3
Forwarding Packet : Src 1 , Dst 0, Route : [1 (3) 0 ]
Sending out Packet! My id : 3
Route used : [1 (3) 0 ]
f 3.125301191 _3_ RTR  --- 12 tcp 1080 [13a 3 1 800] ------- [1:1 0:1 31 0] [1 0] 1 0
r 3.125590564 _1_ MAC  --- 0 ACK 38 [0 1 0 0] 
s 3.125680191 _3_ MAC  --- 0 RTS 44 [260e 1 3 0] 
s 3.125680564 _1_ MAC  --- 0 RTS 44 [256e 3 1 0] 
s 3.126586564 _1_ MAC  --- 0 RTS 44 [256e 3 1 0] 
r 3.126938937 _3_ MAC  --- 0 RTS 44 [256e 3 1 0] 
s 3.126948937 _3_ MAC  --- 0 CTS 38 [2434 1 0 0] 
r 3.127253309 _1_ MAC  --- 0 CTS 38 [2434 1 0 0] 
s 3.127263309 _1_ MAC  --- 13 tcp 1118 [13a 3 1 800] ------- [1:1 0:1 32 3] [2 0] 0 0
r 3.136207682 _3_ MAC  --- 13 tcp 1060 [13a 3 1 800] ------- [1:1 0:1 32 3] [2 0] 1 0
s 3.136217682 _3_ MAC  --- 0 ACK 38 [0 1 0 0] 
r 3.136232682 _3_ RTR  --- 13 tcp 1060 [13a 3 1 800] ------- [1:1 0:1 32 3] [2 0] 1 0
Received a Packet. My ID : 3
Path received : [<empty path>] 
Packet Dest : 0 , Packet Source : 1
SFf 3.136232682 _3_ 13 [1 -> 0] 1 to 0
f 3.136232682 _3_ RTR  --- 13 tcp 1060 [13a 3 1 800] ------- [1:1 0:1 31 0] [2 0] 1 0
r 3.136522055 _1_ MAC  --- 0 ACK 38 [0 1 0 0] 
s 3.136771682 _3_ MAC  --- 0 RTS 44 [260e 1 3 0] 
r 3.137124055 _1_ MAC  --- 0 RTS 44 [260e 1 3 0] 
s 3.137134055 _1_ MAC  --- 0 CTS 38 [24d4 3 0 0] 
r 3.137438427 _3_ MAC  --- 0 CTS 38 [24d4 3 0 0] 
s 3.137448427 _3_ MAC  --- 10 tcp 1138 [13a 1 3 800] ------- [0:0 1:0 31 1] [1 0] 1 0
r 3.146552800 _1_ MAC  --- 10 tcp 1080 [13a 1 3 800] ------- [0:0 1:0 31 1] [1 0] 2 0
s 3.146562800 _1_ MAC  --- 0 ACK 38 [0 3 0 0] 
r 3.146577800 _1_ RTR  --- 10 tcp 1080 [13a 1 3 800] ------- [0:0 1:0 31 1] [1 0] 2 0
Received a Packet. My ID : 1
Path received : [0 3 (1) ] 
Packet Dest : 1 , Packet Source : 0
r 3.146577800 _1_ AGT  --- 10 tcp 1040 [13a 1 3 800] ------- [0:0 1:0 31 1] [1 0] 2 0
s 3.146577800 _1_ AGT  --- 14 ack 40 [0 0 0 0] ------- [1:0 0:0 32 0] [1 0] 0 0
r 3.146577800 _1_ RTR  --- 14 ack 40 [0 0 0 0] ------- [1:0 0:0 32 0] [1 0] 0 0
Route Found: [(1) 3 0 ]
I am Node 1
Route Cache Hit: Trust value for Route # 0
Route Cache Hit: Route is [(1) 3 0 ]
Route Cache Hit: Route's trust value is 0.800000
SFs 3.146577800 _1_ 14 [1 -> 0] 1(0) to 3 
Sending out Packet! My id : 1
Route used : [(1) 3 0 ]
s 3.146577800 _1_ RTR  --- 14 ack 60 [0 0 0 0] ------- [1:0 0:0 32 3] [1 0] 0 0
r 3.146867173 _3_ MAC  --- 0 ACK 38 [0 3 0 0] 
s 3.147076800 _1_ MAC  --- 0 RTS 44 [62e 3 1 0] 
r 3.147429173 _3_ MAC  --- 0 RTS 44 [62e 3 1 0] 
s 3.147439173 _3_ MAC  --- 0 CTS 38 [4f4 1 0 0] 
r 3.147743545 _1_ MAC  --- 0 CTS 38 [4f4 1 0 0] 
s 3.147753545 _1_ MAC  --- 14 ack 118 [13a 3 1 800] ------- [1:0 0:0 32 3] [1 0] 0 0
r 3.148697918 _3_ MAC  --- 14 ack 60 [13a 3 1 800] ------- [1:0 0:0 32 3] [1 0] 1 0
s 3.148707918 _3_ MAC  --- 0 ACK 38 [0 1 0 0] 
r 3.148722918 _3_ RTR  --- 14 ack 60 [13a 3 1 800] ------- [1:0 0:0 32 3] [1 0] 1 0
Received a Packet. My ID : 3
Path received : [<empty path>] 
Packet Dest : 0 , Packet Source : 1
SFf 3.148722918 _3_ 14 [1 -> 0] 1 to 0
f 3.148722918 _3_ RTR  --- 14 ack 60 [13a 3 1 800] ------- [1:0 0:0 31 0] [1 0] 1 0
r 3.149012291 _1_ MAC  --- 0 ACK 38 [0 1 0 0] 
s 3.149081918 _3_ MAC  --- 0 RTS 44 [256e 1 3 0] 
r 3.149434291 _1_ MAC  --- 0 RTS 44 [256e 1 3 0] 
s 3.149444291 _1_ MAC  --- 0 CTS 38 [2434 3 0 0] 
r 3.149748663 _3_ MAC  --- 0 CTS 38 [2434 3 0 0] 
s 3.149758663 _3_ MAC  --- 11 tcp 1118 [13a 1 3 800] ------- [0:0 1:0 31 1] [2 0] 1 0
r 3.158703036 _1_ MAC  --- 11 tcp 1060 [13a 1 3 800] ------- [0:0 1:0 31 1] [2 0] 2 0
s 3.158713036 _1_ MAC  --- 0 ACK 38 [0 3 0 0] 
r 3.158728036 _1_ RTR  --- 11 tcp 1060 [13a 1 3 800] ------- [0:0 1:0 31 1] [2 0] 2 0
Received a Packet. My ID : 1
Path received : [<empty path>] 
Packet Dest : 1 , Packet Source : 0
r 3.158728036 _1_ AGT  --- 11 tcp 1040 [13a 1 3 800] ------- [0:0 1:0 31 1] [2 0] 2 0
s 3.158728036 _1_ AGT  --- 15 ack 40 [0 0 0 0] ------- [1:0 0:0 32 0] [2 0] 0 0
r 3.158728036 _1_ RTR  --- 15 ack 40 [0 0 0 0] ------- [1:0 0:0 32 0] [2 0] 0 0
Route Found: [(1) 3 0 ]
I am Node 1
Route Cache Hit: Trust value for Route # 0
Route Cache Hit: Route is [(1) 3 0 ]
Route Cache Hit: Route's trust value is 0.800000
SFs 3.158728036 _1_ 15 [1 -> 0] 1(0) to 3 
Sending out Packet! My id : 1
Route used : [(1) 3 0 ]
s 3.158728036 _1_ RTR  --- 15 ack 60 [0 0 0 0] ------- [1:0 0:0 32 3] [2 0] 0 0
r 3.159017409 _3_ MAC  --- 0 ACK 38 [0 3 0 0] 
s 3.159127036 _1_ MAC  --- 0 RTS 44 [62e 3 1 0] 
r 3.159479409 _3_ MAC  --- 0 RTS 44 [62e 3 1 0] 
s 3.159489409 _3_ MAC  --- 0 CTS 38 [4f4 1 0 0] 
r 3.159793782 _1_ MAC  --- 0 CTS 38 [4f4 1 0 0] 
s 3.159803782 _1_ MAC  --- 15 ack 118 [13a 3 1 800] ------- [1:0 0:0 32 3] [2 0] 0 0
r 3.160748154 _3_ MAC  --- 15 ack 60 [13a 3 1 800] ------- [1:0 0:0 32 3] [2 0] 1 0
s 3.160758154 _3_ MAC  --- 0 ACK 38 [0 1 0 0] 
r 3.160773154 _3_ RTR  --- 15 ack 60 [13a 3 1 800] ------- [1:0 0:0 32 3] [2 0] 1 0
Received a Packet. My ID : 3
Path received : [<empty path>] 
Packet Dest : 0 , Packet Source : 1
SFf 3.160773154 _3_ 15 [1 -> 0] 1 to 0
f 3.160773154 _3_ RTR  --- 15 ack 60 [13a 3 1 800] ------- [1:0 0:0 31 0] [2 0] 1 0
r 3.161062527 _1_ MAC  --- 0 ACK 38 [0 1 0 0] 
s 3.161152154 _3_ MAC  --- 0 RTS 44 [62e 0 3 0] 
r 3.161504527 _0_ MAC  --- 0 RTS 44 [62e 0 3 0] 
s 3.161514527 _0_ MAC  --- 0 CTS 38 [4f4 3 0 0] 
r 3.161818900 _3_ MAC  --- 0 CTS 38 [4f4 3 0 0] 
s 3.161828900 _3_ MAC  --- 14 ack 118 [13a 0 3 800] ------- [1:0 0:0 31 0] [1 0] 1 0