Sconfig 0.00000 tap: on snoop: rts? on errs? on
Sconfig 0.00000 salvage: on !bd replies? on
Sconfig 0.00000 grat error: on grat reply: on
Sconfig 0.00000 $reply for props: on ring 0 search: on
Sconfig 0.00000 using MOBICACHE
Malicious set to true
MAC BEING SET to : 0 
MAC BEING SET to : 1 
MAC BEING SET to : 2 
MAC BEING SET to : 3 
MAC BEING SET to : 0 
MAC BEING SET to : 1 
MAC BEING SET to : 2 
MAC BEING SET to : 3 
Hello World
s 3.000000000 _0_ AGT  --- 0 tcp 40 [0 0 0 0] ------- [0:0 1:0 32 0] [0 0] 0 0
r 3.000000000 _0_ RTR  --- 0 tcp 40 [0 0 0 0] ------- [0:0 1:0 32 0] [0 0] 0 0
Received a Packet. My ID : 0
Route Not Found
Sending out Packet! My id : 0
s 3.003987806 _0_ RTR  --- 1 DSR 32 [0 0 0 0] ------- [0:255 1:255 32 0] 1 [1 1] [0 1 0 0->0] [0 0 0 0->0]
s 3.004442806 _0_ MAC  --- 1 DSR 90 [0 ffffffff 0 800] ------- [0:255 1:255 32 0] 1 [1 1] [0 1 0 0->0] [0 0 0 0->0]
r 3.005163179 _2_ MAC  --- 1 DSR 32 [0 ffffffff 0 800] ------- [0:255 1:255 32 0] 1 [1 1] [0 1 0 0->0] [0 0 0 0->0]
r 3.005163179 _3_ MAC  --- 1 DSR 32 [0 ffffffff 0 800] ------- [0:255 1:255 32 0] 1 [1 1] [0 1 0 0->0] [0 0 0 0->0]
r 3.005188179 _2_ RTR  --- 1 DSR 32 [0 ffffffff 0 800] ------- [0:255 1:255 32 0] 1 [1 1] [0 1 0 0->0] [0 0 0 0->0]
Received a Packet. My ID : 2
Route Not Found
r 3.005188179 _3_ RTR  --- 1 DSR 32 [0 ffffffff 0 800] ------- [0:255 1:255 32 0] 1 [1 1] [0 1 0 0->0] [0 0 0 0->0]
Received a Packet. My ID : 3
Route Not Found
Route Not Found
Route Not Found
Sending out Packet! My id : 0
s 3.071751242 _0_ RTR  --- 3 DSR 32 [0 0 0 0] ------- [0:255 1:255 32 0] 1 [1 2] [0 2 0 0->0] [0 0 0 0->0]
s 3.072346242 _0_ MAC  --- 3 DSR 90 [0 ffffffff 0 800] ------- [0:255 1:255 32 0] 1 [1 2] [0 2 0 0->0] [0 0 0 0->0]
r 3.073066615 _2_ MAC  --- 3 DSR 32 [0 ffffffff 0 800] ------- [0:255 1:255 32 0] 1 [1 2] [0 2 0 0->0] [0 0 0 0->0]
r 3.073066615 _3_ MAC  --- 3 DSR 32 [0 ffffffff 0 800] ------- [0:255 1:255 32 0] 1 [1 2] [0 2 0 0->0] [0 0 0 0->0]
r 3.073091615 _2_ RTR  --- 3 DSR 32 [0 ffffffff 0 800] ------- [0:255 1:255 32 0] 1 [1 2] [0 2 0 0->0] [0 0 0 0->0]
Received a Packet. My ID : 2
Route Not Found
Sending out Packet! My id : 2
r 3.073091615 _3_ RTR  --- 3 DSR 32 [0 ffffffff 0 800] ------- [0:255 1:255 32 0] 1 [1 2] [0 2 0 0->0] [0 0 0 0->0]
Received a Packet. My ID : 3
Route Not Found
Sending out Packet! My id : 3
f 3.073942102 _3_ RTR  --- 3 DSR 48 [0 ffffffff 0 800] ------- [0:255 1:255 32 0] 2 [1 2] [0 2 0 0->0] [0 0 0 0->0]
f 3.074072770 _2_ RTR  --- 3 DSR 48 [0 ffffffff 0 800] ------- [0:255 1:255 32 0] 2 [1 2] [0 2 0 0->0] [0 0 0 0->0]
s 3.074117102 _3_ MAC  --- 3 DSR 106 [0 ffffffff 3 800] ------- [0:255 1:255 32 0] 2 [1 2] [0 2 0 0->0] [0 0 0 0->0]
r 3.074965435 _2_ MAC  --- 3 DSR 48 [0 ffffffff 3 800] ------- [0:255 1:255 32 0] 2 [1 2] [0 2 0 0->0] [0 0 0 0->0]
r 3.074965474 _0_ MAC  --- 3 DSR 48 [0 ffffffff 3 800] ------- [0:255 1:255 32 0] 2 [1 2] [0 2 0 0->0] [0 0 0 0->0]
r 3.074965474 _1_ MAC  --- 3 DSR 48 [0 ffffffff 3 800] ------- [0:255 1:255 32 0] 2 [1 2] [0 2 0 0->0] [0 0 0 0->0]
r 3.074990435 _2_ RTR  --- 3 DSR 48 [0 ffffffff 3 800] ------- [0:255 1:255 32 0] 2 [1 2] [0 2 0 0->0] [0 0 0 0->0]
Received a Packet. My ID : 2
r 3.074990474 _0_ RTR  --- 3 DSR 48 [0 ffffffff 3 800] ------- [0:255 1:255 32 0] 2 [1 2] [0 2 0 0->0] [0 0 0 0->0]
Received a Packet. My ID : 0
r 3.074990474 _1_ RTR  --- 3 DSR 48 [0 ffffffff 3 800] ------- [0:255 1:255 32 0] 2 [1 2] [0 2 0 0->0] [0 0 0 0->0]
Received a Packet. My ID : 1
Adding Route. My ID : 1
Route is [1 3 (0) ]
Min Trust for this Route is 0.100000
s 3.075615435 _2_ MAC  --- 3 DSR 106 [0 ffffffff 2 800] ------- [0:255 1:255 32 0] 2 [1 2] [0 2 0 0->0] [0 0 0 0->0]
r 3.076463768 _3_ MAC  --- 3 DSR 48 [0 ffffffff 2 800] ------- [0:255 1:255 32 0] 2 [1 2] [0 2 0 0->0] [0 0 0 0->0]
r 3.076463808 _0_ MAC  --- 3 DSR 48 [0 ffffffff 2 800] ------- [0:255 1:255 32 0] 2 [1 2] [0 2 0 0->0] [0 0 0 0->0]
r 3.076463808 _1_ MAC  --- 3 DSR 48 [0 ffffffff 2 800] ------- [0:255 1:255 32 0] 2 [1 2] [0 2 0 0->0] [0 0 0 0->0]
r 3.076488768 _3_ RTR  --- 3 DSR 48 [0 ffffffff 2 800] ------- [0:255 1:255 32 0] 2 [1 2] [0 2 0 0->0] [0 0 0 0->0]
Received a Packet. My ID : 3
r 3.076488808 _0_ RTR  --- 3 DSR 48 [0 ffffffff 2 800] ------- [0:255 1:255 32 0] 2 [1 2] [0 2 0 0->0] [0 0 0 0->0]
Received a Packet. My ID : 0
r 3.076488808 _1_ RTR  --- 3 DSR 48 [0 ffffffff 2 800] ------- [0:255 1:255 32 0] 2 [1 2] [0 2 0 0->0] [0 0 0 0->0]
Received a Packet. My ID : 1
Adding Route. My ID : 1
Route is [1 2 (0) ]
Min Trust for this Route is 0.700000
Received a Packet. My ID : 1
Sending out Packet! My id : 1
s 3.079419294 _1_ RTR  --- 4 DSR 52 [0 0 0 0] ------- [1:255 0:255 254 3] 3 [0 2] [1 2 3 0->1] [0 0 0 0->0]
s 3.080074294 _1_ MAC  --- 0 ARP 86 [0 ffffffff 1 806] ------- [REQUEST 1/1 0/3]
r 3.080762667 _3_ MAC  --- 0 ARP 28 [0 ffffffff 1 806] ------- [REQUEST 1/1 0/3]
r 3.080762667 _2_ MAC  --- 0 ARP 28 [0 ffffffff 1 806] ------- [REQUEST 1/1 0/3]
s 3.081057667 _3_ MAC  --- 0 RTS 44 [52e 1 3 0] 
r 3.081410039 _1_ MAC  --- 0 RTS 44 [52e 1 3 0] 
s 3.081420039 _1_ MAC  --- 0 CTS 38 [3f4 3 0 0] 
r 3.081724412 _3_ MAC  --- 0 CTS 38 [3f4 3 0 0] 
s 3.081734412 _3_ MAC  --- 0 ARP 86 [13a 1 3 806] ------- [REPLY 3/3 1/1]
Received a Packet. My ID : 1
Sending out Packet! My id : 1
s 3.082241911 _1_ RTR  --- 5 DSR 52 [0 0 0 0] ------- [1:255 0:255 254 2] 3 [0 2] [1 2 3 0->1] [0 0 0 0->0]
r 3.082422785 _1_ MAC  --- 0 ARP 28 [13a 1 3 806] ------- [REPLY 3/3 1/1]
s 3.082432785 _1_ MAC  --- 0 ACK 38 [0 3 0 0] 
r 3.082737158 _3_ MAC  --- 0 ACK 38 [0 3 0 0] 
s 3.083146785 _1_ MAC  --- 0 ARP 86 [0 ffffffff 1 806] ------- [REQUEST 1/1 0/2]
r 3.083835158 _3_ MAC  --- 0 ARP 28 [0 ffffffff 1 806] ------- [REQUEST 1/1 0/2]
r 3.083835158 _2_ MAC  --- 0 ARP 28 [0 ffffffff 1 806] ------- [REQUEST 1/1 0/2]
s 3.083924785 _1_ MAC  --- 0 RTS 44 [5ee 3 1 0] 
r 3.084277158 _3_ MAC  --- 0 RTS 44 [5ee 3 1 0] 
s 3.084287158 _3_ MAC  --- 0 CTS 38 [4b4 1 0 0] 
r 3.084591530 _1_ MAC  --- 0 CTS 38 [4b4 1 0 0] 
s 3.084601530 _1_ MAC  --- 4 DSR 110 [13a 3 1 800] ------- [1:255 0:255 254 3] 3 [0 2] [1 2 3 0->1] [0 0 0 0->0]
r 3.085481903 _3_ MAC  --- 4 DSR 52 [13a 3 1 800] ------- [1:255 0:255 254 3] 3 [0 2] [1 2 3 0->1] [0 0 0 0->0]
s 3.085491903 _3_ MAC  --- 0 ACK 38 [0 1 0 0] 
r 3.085506903 _3_ RTR  --- 4 DSR 52 [13a 3 1 800] ------- [1:255 0:255 254 3] 3 [0 2] [1 2 3 0->1] [0 0 0 0->0]
Received a Packet. My ID : 3
Sending out Packet! My id : 3
f 3.085506903 _3_ RTR  --- 4 DSR 52 [13a 3 1 800] ------- [1:255 0:255 253 0] 3 [0 2] [1 2 3 0->1] [0 0 0 0->0]
r 3.085796276 _1_ MAC  --- 0 ACK 38 [0 1 0 0] 
s 3.085845903 _3_ MAC  --- 0 ARP 86 [0 ffffffff 3 806] ------- [REQUEST 3/3 0/0]
r 3.086534236 _2_ MAC  --- 0 ARP 28 [0 ffffffff 3 806] ------- [REQUEST 3/3 0/0]
r 3.086534276 _0_ MAC  --- 0 ARP 28 [0 ffffffff 3 806] ------- [REQUEST 3/3 0/0]
r 3.086534276 _1_ MAC  --- 0 ARP 28 [0 ffffffff 3 806] ------- [REQUEST 3/3 0/0]
s 3.086709276 _0_ MAC  --- 0 RTS 44 [52e 3 0 0] 
r 3.087061648 _3_ MAC  --- 0 RTS 44 [52e 3 0 0] 
s 3.087071648 _3_ MAC  --- 0 CTS 38 [3f4 0 0 0] 
r 3.087376021 _0_ MAC  --- 0 CTS 38 [3f4 0 0 0] 
s 3.087386021 _0_ MAC  --- 0 ARP 86 [13a 3 0 806] ------- [REPLY 0/0 3/3]
r 3.088074394 _3_ MAC  --- 0 ARP 28 [13a 3 0 806] ------- [REPLY 0/0 3/3]
s 3.088084394 _3_ MAC  --- 0 ACK 38 [0 0 0 0] 
r 3.088388766 _0_ MAC  --- 0 ACK 38 [0 0 0 0] 
s 3.088578727 _2_ MAC  --- 0 RTS 44 [52e 1 2 0] 
r 3.088931100 _1_ MAC  --- 0 RTS 44 [52e 1 2 0] 
s 3.088941100 _1_ MAC  --- 0 CTS 38 [3f4 2 0 0] 
r 3.089245472 _2_ MAC  --- 0 CTS 38 [3f4 2 0 0] 
s 3.089255472 _2_ MAC  --- 0 ARP 86 [13a 1 2 806] ------- [REPLY 2/2 1/1]
r 3.089943845 _1_ MAC  --- 0 ARP 28 [13a 1 2 806] ------- [REPLY 2/2 1/1]
s 3.089953845 _1_ MAC  --- 0 ACK 38 [0 2 0 0] 
r 3.090258218 _2_ MAC  --- 0 ACK 38 [0 2 0 0] 
s 3.090568218 _3_ MAC  --- 0 RTS 44 [5ee 0 3 0] 
r 3.090920590 _0_ MAC  --- 0 RTS 44 [5ee 0 3 0] 
s 3.090930590 _0_ MAC  --- 0 CTS 38 [4b4 3 0 0] 
r 3.091234963 _3_ MAC  --- 0 CTS 38 [4b4 3 0 0] 
s 3.091244963 _3_ MAC  --- 4 DSR 110 [13a 0 3 800] ------- [1:255 0:255 253 0] 3 [0 2] [1 2 3 0->1] [0 0 0 0->0]
r 3.092125336 _0_ MAC  --- 4 DSR 52 [13a 0 3 800] ------- [1:255 0:255 253 0] 3 [0 2] [1 2 3 0->1] [0 0 0 0->0]
s 3.092135336 _0_ MAC  --- 0 ACK 38 [0 3 0 0] 
r 3.092150336 _0_ RTR  --- 4 DSR 52 [13a 0 3 800] ------- [1:255 0:255 253 0] 3 [0 2] [1 2 3 0->1] [0 0 0 0->0]
Received a Packet. My ID : 0
Adding Route. My ID : 0
Route is [(0) 3 1 ]
Min Trust for this Route is 0.000000
Route Not Found
r 3.092439708 _3_ MAC  --- 0 ACK 38 [0 3 0 0] 
s 3.092709336 _1_ MAC  --- 0 RTS 44 [5ee 2 1 0] 
r 3.093061708 _2_ MAC  --- 0 RTS 44 [5ee 2 1 0] 
s 3.093071708 _2_ MAC  --- 0 CTS 38 [4b4 1 0 0] 
r 3.093376081 _1_ MAC  --- 0 CTS 38 [4b4 1 0 0] 
s 3.093386081 _1_ MAC  --- 5 DSR 110 [13a 2 1 800] ------- [1:255 0:255 254 2] 3 [0 2] [1 2 3 0->1] [0 0 0 0->0]
r 3.094266454 _2_ MAC  --- 5 DSR 52 [13a 2 1 800] ------- [1:255 0:255 254 2] 3 [0 2] [1 2 3 0->1] [0 0 0 0->0]
s 3.094276454 _2_ MAC  --- 0 ACK 38 [0 1 0 0] 
r 3.094291454 _2_ RTR  --- 5 DSR 52 [13a 2 1 800] ------- [1:255 0:255 254 2] 3 [0 2] [1 2 3 0->1] [0 0 0 0->0]
Received a Packet. My ID : 2
Sending out Packet! My id : 2
f 3.094291454 _2_ RTR  --- 5 DSR 52 [13a 2 1 800] ------- [1:255 0:255 253 0] 3 [0 2] [1 2 3 0->1] [0 0 0 0->0]
r 3.094580826 _1_ MAC  --- 0 ACK 38 [0 1 0 0] 
s 3.094950454 _2_ MAC  --- 0 ARP 86 [0 ffffffff 2 806] ------- [REQUEST 2/2 0/0]
r 3.095638787 _3_ MAC  --- 0 ARP 28 [0 ffffffff 2 806] ------- [REQUEST 2/2 0/0]
r 3.095638826 _0_ MAC  --- 0 ARP 28 [0 ffffffff 2 806] ------- [REQUEST 2/2 0/0]
r 3.095638826 _1_ MAC  --- 0 ARP 28 [0 ffffffff 2 806] ------- [REQUEST 2/2 0/0]
s 3.095993826 _0_ MAC  --- 0 RTS 44 [52e 2 0 0] 
r 3.096346199 _2_ MAC  --- 0 RTS 44 [52e 2 0 0] 
s 3.096356199 _2_ MAC  --- 0 CTS 38 [3f4 0 0 0] 
r 3.096660572 _0_ MAC  --- 0 CTS 38 [3f4 0 0 0] 
s 3.096670572 _0_ MAC  --- 0 ARP 86 [13a 2 0 806] ------- [REPLY 0/0 2/2]
r 3.097358944 _2_ MAC  --- 0 ARP 28 [13a 2 0 806] ------- [REPLY 0/0 2/2]
s 3.097368944 _2_ MAC  --- 0 ACK 38 [0 0 0 0] 
r 3.097673317 _0_ MAC  --- 0 ACK 38 [0 0 0 0] 
s 3.098002944 _2_ MAC  --- 0 RTS 44 [5ee 0 2 0] 
r 3.098355317 _0_ MAC  --- 0 RTS 44 [5ee 0 2 0] 
s 3.098365317 _0_ MAC  --- 0 CTS 38 [4b4 2 0 0] 
r 3.098669690 _2_ MAC  --- 0 CTS 38 [4b4 2 0 0] 
s 3.098679690 _2_ MAC  --- 5 DSR 110 [13a 0 2 800] ------- [1:255 0:255 253 0] 3 [0 2] [1 2 3 0->1] [0 0 0 0->0]
r 3.099560062 _0_ MAC  --- 5 DSR 52 [13a 0 2 800] ------- [1:255 0:255 253 0] 3 [0 2] [1 2 3 0->1] [0 0 0 0->0]
s 3.099570062 _0_ MAC  --- 0 ACK 38 [0 2 0 0] 
r 3.099585062 _0_ RTR  --- 5 DSR 52 [13a 0 2 800] ------- [1:255 0:255 253 0] 3 [0 2] [1 2 3 0->1] [0 0 0 0->0]
Received a Packet. My ID : 0
Adding Route. My ID : 0
Route is [(0) 2 1 ]
Min Trust for this Route is 0.700000
Route Found: [(0) 2 1 ]
I am Node 0
Route Cache Hit: Trust value for Route # 1
Route Cache Hit: Route is [(0) 2 1 ]
Route Cache Hit: Route's trust value is 0.700000
Sending out Packet! My id : 0
SFESTs 3.099585062 _0_ 0 [0 -> 1] 1(1) to 2 [0 |2 1 ]
s 3.099585062 _0_ RTR  --- 0 tcp 80 [0 0 0 0] ------- [0:0 1:0 32 2] [0 0] 0 0
r 3.099874435 _2_ MAC  --- 0 ACK 38 [0 2 0 0] 
s 3.100284062 _0_ MAC  --- 0 RTS 44 [6ce 2 0 0] 
r 3.100636435 _2_ MAC  --- 0 RTS 44 [6ce 2 0 0] 
s 3.100646435 _2_ MAC  --- 0 CTS 38 [594 0 0 0] 
r 3.100950808 _0_ MAC  --- 0 CTS 38 [594 0 0 0] 
s 3.100960808 _0_ MAC  --- 0 tcp 138 [13a 2 0 800] ------- [0:0 1:0 32 2] [0 0] 0 0
r 3.102065180 _2_ MAC  --- 0 tcp 80 [13a 2 0 800] ------- [0:0 1:0 32 2] [0 0] 1 0
s 3.102075180 _2_ MAC  --- 0 ACK 38 [0 0 0 0] 
r 3.102090180 _2_ RTR  --- 0 tcp 80 [13a 2 0 800] ------- [0:0 1:0 32 2] [0 0] 1 0
Received a Packet. My ID : 2
Sending out Packet! My id : 2
f 3.102090180 _2_ RTR  --- 0 tcp 80 [13a 2 0 800] ------- [0:0 1:0 31 1] [0 0] 1 0
r 3.102379553 _0_ MAC  --- 0 ACK 38 [0 0 0 0] 
s 3.102449180 _2_ MAC  --- 0 RTS 44 [6ce 1 2 0] 
r 3.102801553 _1_ MAC  --- 0 RTS 44 [6ce 1 2 0] 
s 3.102811553 _1_ MAC  --- 0 CTS 38 [594 2 0 0] 
r 3.103115926 _2_ MAC  --- 0 CTS 38 [594 2 0 0] 
s 3.103125926 _2_ MAC  --- 0 tcp 138 [13a 1 2 800] ------- [0:0 1:0 31 1] [0 0] 1 0
r 3.104230299 _1_ MAC  --- 0 tcp 80 [13a 1 2 800] ------- [0:0 1:0 31 1] [0 0] 2 0
s 3.104240299 _1_ MAC  --- 0 ACK 38 [0 2 0 0] 
r 3.104255299 _1_ RTR  --- 0 tcp 80 [13a 1 2 800] ------- [0:0 1:0 31 1] [0 0] 2 0
Received a Packet. My ID : 1
r 3.104255299 _1_ AGT  --- 0 tcp 40 [13a 1 2 800] ------- [0:0 1:0 31 1] [0 0] 2 0
s 3.104255299 _1_ AGT  --- 6 ack 40 [0 0 0 0] ------- [1:0 0:0 32 0] [0 0] 0 0
r 3.104255299 _1_ RTR  --- 6 ack 40 [0 0 0 0] ------- [1:0 0:0 32 0] [0 0] 0 0
Received a Packet. My ID : 1
Route Found: [(1) 2 0 ]
I am Node 1
Route Cache Hit: Trust value for Route # 1
Route Cache Hit: Route is [(1) 2 0 ]
Route Cache Hit: Route's trust value is 0.700000
Sending out Packet! My id : 1
SFESTs 3.104255299 _1_ 6 [1 -> 0] 1(1) to 2 [1 |2 0 ]
s 3.104255299 _1_ RTR  --- 6 ack 80 [0 0 0 0] ------- [1:0 0:0 32 2] [0 0] 0 0
r 3.104544671 _2_ MAC  --- 0 ACK 38 [0 2 0 0] 
s 3.105174299 _1_ MAC  --- 0 RTS 44 [6ce 2 1 0] 
r 3.105526671 _2_ MAC  --- 0 RTS 44 [6ce 2 1 0] 
s 3.105536671 _2_ MAC  --- 0 CTS 38 [594 1 0 0] 
r 3.105841044 _1_ MAC  --- 0 CTS 38 [594 1 0 0] 
s 3.105851044 _1_ MAC  --- 6 ack 138 [13a 2 1 800] ------- [1:0 0:0 32 2] [0 0] 0 0
r 3.106955417 _2_ MAC  --- 6 ack 80 [13a 2 1 800] ------- [1:0 0:0 32 2] [0 0] 1 0
s 3.106965417 _2_ MAC  --- 0 ACK 38 [0 1 0 0] 
r 3.106980417 _2_ RTR  --- 6 ack 80 [13a 2 1 800] ------- [1:0 0:0 32 2] [0 0] 1 0
Received a Packet. My ID : 2
Sending out Packet! My id : 2
f 3.106980417 _2_ RTR  --- 6 ack 80 [13a 2 1 800] ------- [1:0 0:0 31 0] [0 0] 1 0
r 3.107269789 _1_ MAC  --- 0 ACK 38 [0 1 0 0] 
s 3.107359417 _2_ MAC  --- 0 RTS 44 [6ce 0 2 0] 
r 3.107711789 _0_ MAC  --- 0 RTS 44 [6ce 0 2 0] 
s 3.107721789 _0_ MAC  --- 0 CTS 38 [594 2 0 0] 
r 3.108026162 _2_ MAC  --- 0 CTS 38 [594 2 0 0] 
s 3.108036162 _2_ MAC  --- 6 ack 138 [13a 0 2 800] ------- [1:0 0:0 31 0] [0 0] 1 0
r 3.109140535 _0_ MAC  --- 6 ack 80 [13a 0 2 800] ------- [1:0 0:0 31 0] [0 0] 2 0
s 3.109150535 _0_ MAC  --- 0 ACK 38 [0 2 0 0] 
r 3.109165535 _0_ RTR  --- 6 ack 80 [13a 0 2 800] ------- [1:0 0:0 31 0] [0 0] 2 0
Received a Packet. My ID : 0
r 3.109165535 _0_ AGT  --- 6 ack 40 [13a 0 2 800] ------- [1:0 0:0 31 0] [0 0] 2 0
s 3.109165535 _0_ AGT  --- 7 tcp 1040 [0 0 0 0] ------- [0:0 1:0 32 0] [1 0] 0 0
r 3.109165535 _0_ RTR  --- 7 tcp 1040 [0 0 0 0] ------- [0:0 1:0 32 0] [1 0] 0 0
Received a Packet. My ID : 0
Route Found: [(0) 2 1 ]
I am Node 0
Route Cache Hit: Trust value for Route # 1
Route Cache Hit: Route is [(0) 2 1 ]
Route Cache Hit: Route's trust value is 0.700000
Sending out Packet! My id : 0
SFESTs 3.109165535 _0_ 7 [0 -> 1] 1(1) to 2 [0 |2 1 ]
s 3.109165535 _0_ AGT  --- 8 tcp 1040 [0 0 0 0] ------- [0:0 1:0 32 0] [2 0] 0 0
r 3.109165535 _0_ RTR  --- 8 tcp 1040 [0 0 0 0] ------- [0:0 1:0 32 0] [2 0] 0 0
Received a Packet. My ID : 0
Route Found: [(0) 2 1 ]
I am Node 0
Route Cache Hit: Trust value for Route # 1
Route Cache Hit: Route is [(0) 2 1 ]
Route Cache Hit: Route's trust value is 0.700000
Sending out Packet! My id : 0
SFESTs 3.109165535 _0_ 8 [0 -> 1] 1(1) to 2 [0 |2 1 ]
s 3.109165535 _0_ RTR  --- 7 tcp 1080 [0 0 0 0] ------- [0:0 1:0 32 2] [1 0] 0 0
s 3.109165535 _0_ RTR  --- 8 tcp 1080 [0 0 0 0] ------- [0:0 1:0 32 2] [2 0] 0 0
r 3.109454907 _2_ MAC  --- 0 ACK 38 [0 2 0 0] 
s 3.109544535 _0_ MAC  --- 0 RTS 44 [260e 2 0 0] 
r 3.109896907 _2_ MAC  --- 0 RTS 44 [260e 2 0 0] 
s 3.109906907 _2_ MAC  --- 0 CTS 38 [24d4 0 0 0] 
r 3.110211280 _0_ MAC  --- 0 CTS 38 [24d4 0 0 0] 
s 3.110221280 _0_ MAC  --- 7 tcp 1138 [13a 2 0 800] ------- [0:0 1:0 32 2] [1 0] 0 0
r 3.119325653 _2_ MAC  --- 7 tcp 1080 [13a 2 0 800] ------- [0:0 1:0 32 2] [1 0] 1 0
s 3.119335653 _2_ MAC  --- 0 ACK 38 [0 0 0 0] 
r 3.119350653 _2_ RTR  --- 7 tcp 1080 [13a 2 0 800] ------- [0:0 1:0 32 2] [1 0] 1 0
Received a Packet. My ID : 2
Sending out Packet! My id : 2
f 3.119350653 _2_ RTR  --- 7 tcp 1080 [13a 2 0 800] ------- [0:0 1:0 31 1] [1 0] 1 0
r 3.119640025 _0_ MAC  --- 0 ACK 38 [0 0 0 0] 
s 3.119730025 _0_ MAC  --- 0 RTS 44 [260e 2 0 0] 
r 3.120082398 _2_ MAC  --- 0 RTS 44 [260e 2 0 0] 
s 3.120092398 _2_ MAC  --- 0 CTS 38 [24d4 0 0 0] 
r 3.120396771 _0_ MAC  --- 0 CTS 38 [24d4 0 0 0] 
s 3.120406771 _0_ MAC  --- 8 tcp 1138 [13a 2 0 800] ------- [0:0 1:0 32 2] [2 0] 0 0
r 3.129511143 _2_ MAC  --- 8 tcp 1080 [13a 2 0 800] ------- [0:0 1:0 32 2] [2 0] 1 0
s 3.129521143 _2_ MAC  --- 0 ACK 38 [0 0 0 0] 
r 3.129536143 _2_ RTR  --- 8 tcp 1080 [13a 2 0 800] ------- [0:0 1:0 32 2] [2 0] 1 0
Received a Packet. My ID : 2
Sending out Packet! My id : 2
f 3.129536143 _2_ RTR  --- 8 tcp 1080 [13a 2 0 800] ------- [0:0 1:0 31 1] [2 0] 1 0
r 3.129825516 _0_ MAC  --- 0 ACK 38 [0 0 0 0] 
s 3.129955143 _2_ MAC  --- 0 RTS 44 [260e 1 2 0] 
r 3.130307516 _1_ MAC  --- 0 RTS 44 [260e 1 2 0] 
s 3.130317516 _1_ MAC  --- 0 CTS 38 [24d4 2 0 0] 
r 3.130621889 _2_ MAC  --- 0 CTS 38 [24d4 2 0 0] 
s 3.130631889 _2_ MAC  --- 7 tcp 1138 [13a 1 2 800] ------- [0:0 1:0 31 1] [1 0] 1 0
r 3.139736261 _1_ MAC  --- 7 tcp 1080 [13a 1 2 800] ------- [0:0 1:0 31 1] [1 0] 2 0
s 3.139746261 _1_ MAC  --- 0 ACK 38 [0 2 0 0] 
r 3.139761261 _1_ RTR  --- 7 tcp 1080 [13a 1 2 800] ------- [0:0 1:0 31 1] [1 0] 2 0
Received a Packet. My ID : 1
r 3.139761261 _1_ AGT  --- 7 tcp 1040 [13a 1 2 800] ------- [0:0 1:0 31 1] [1 0] 2 0
s 3.139761261 _1_ AGT  --- 9 ack 40 [0 0 0 0] ------- [1:0 0:0 32 0] [1 0] 0 0
r 3.139761261 _1_ RTR  --- 9 ack 40 [0 0 0 0] ------- [1:0 0:0 32 0] [1 0] 0 0
Received a Packet. My ID : 1
Route Found: [(1) 2 0 ]
I am Node 1
Route Cache Hit: Trust value for Route # 1
Route Cache Hit: Route is [(1) 2 0 ]
Route Cache Hit: Route's trust value is 0.700000
Sending out Packet! My id : 1
SFESTs 3.139761261 _1_ 9 [1 -> 0] 1(1) to 2 [1 |2 0 ]
s 3.139761261 _1_ RTR  --- 9 ack 80 [0 0 0 0] ------- [1:0 0:0 32 2] [1 0] 0 0
r 3.140050634 _2_ MAC  --- 0 ACK 38 [0 2 0 0] 
s 3.140540261 _1_ MAC  --- 0 RTS 44 [6ce 2 1 0] 
r 3.140892634 _2_ MAC  --- 0 RTS 44 [6ce 2 1 0] 
s 3.140902634 _2_ MAC  --- 0 CTS 38 [594 1 0 0] 
r 3.141207007 _1_ MAC  --- 0 CTS 38 [594 1 0 0] 
s 3.141217007 _1_ MAC  --- 9 ack 138 [13a 2 1 800] ------- [1:0 0:0 32 2] [1 0] 0 0
r 3.142321379 _2_ MAC  --- 9 ack 80 [13a 2 1 800] ------- [1:0 0:0 32 2] [1 0] 1 0
s 3.142331379 _2_ MAC  --- 0 ACK 38 [0 1 0 0] 
r 3.142346379 _2_ RTR  --- 9 ack 80 [13a 2 1 800] ------- [1:0 0:0 32 2] [1 0] 1 0
Received a Packet. My ID : 2
Sending out Packet! My id : 2
f 3.142346379 _2_ RTR  --- 9 ack 80 [13a 2 1 800] ------- [1:0 0:0 31 0] [1 0] 1 0
r 3.142635752 _1_ MAC  --- 0 ACK 38 [0 1 0 0] 
s 3.142845379 _2_ MAC  --- 0 RTS 44 [260e 1 2 0] 
r 3.143197752 _1_ MAC  --- 0 RTS 44 [260e 1 2 0] 
s 3.143207752 _1_ MAC  --- 0 CTS 38 [24d4 2 0 0] 
r 3.143512125 _2_ MAC  --- 0 CTS 38 [24d4 2 0 0] 
s 3.143522125 _2_ MAC  --- 8 tcp 1138 [13a 1 2 800] ------- [0:0 1:0 31 1] [2 0] 1 0
r 3.152626497 _1_ MAC  --- 8 tcp 1080 [13a 1 2 800] ------- [0:0 1:0 31 1] [2 0] 2 0
s 3.152636497 _1_ MAC  --- 0 ACK 38 [0 2 0 0] 
r 3.152651497 _1_ RTR  --- 8 tcp 1080 [13a 1 2 800] ------- [0:0 1:0 31 1] [2 0] 2 0
Received a Packet. My ID : 1
r 3.152651497 _1_ AGT  --- 8 tcp 1040 [13a 1 2 800] ------- [0:0 1:0 31 1] [2 0] 2 0
s 3.152651497 _1_ AGT  --- 10 ack 40 [0 0 0 0] ------- [1:0 0:0 32 0] [2 0] 0 0
r 3.152651497 _1_ RTR  --- 10 ack 40 [0 0 0 0] ------- [1:0 0:0 32 0] [2 0] 0 0
Received a Packet. My ID : 1
Route Found: [(1) 2 0 ]
I am Node 1
Route Cache Hit: Trust value for Route # 1
Route Cache Hit: Route is [(1) 2 0 ]
Route Cache Hit: Route's trust value is 0.700000
Sending out Packet! My id : 1
SFESTs 3.152651497 _1_ 10 [1 -> 0] 1(1) to 2 [1 |2 0 ]
s 3.152651497 _1_ RTR  --- 10 ack 80 [0 0 0 0] ------- [1:0 0:0 32 2] [2 0] 0 0
r 3.152940870 _2_ MAC  --- 0 ACK 38 [0 2 0 0] 
s 3.152990870 _2_ MAC  --- 0 RTS 44 [6ce 0 2 0] 
r 3.153343243 _0_ MAC  --- 0 RTS 44 [6ce 0 2 0] 
s 3.153353243 _0_ MAC  --- 0 CTS 38 [594 2 0 0] 
r 3.153657615 _2_ MAC  --- 0 CTS 38 [594 2 0 0] 
s 3.153667615 _2_ MAC  --- 9 ack 138 [13a 0 2 800] ------- [1:0 0:0 31 0] [1 0] 1 0
r 3.154771988 _0_ MAC  --- 9 ack 80 [13a 0 2 800] ------- [1:0 0:0 31 0] [1 0] 2 0
s 3.154781988 _0_ MAC  --- 0 ACK 38 [0 2 0 0] 
r 3.154796988 _0_ RTR  --- 9 ack 80 [13a 0 2 800] ------- [1:0 0:0 31 0] [1 0] 2 0
Received a Packet. My ID : 0
r 3.154796988 _0_ AGT  --- 9 ack 40 [13a 0 2 800] ------- [1:0 0:0 31 0] [1 0] 2 0
s 3.154796988 _0_ AGT  --- 11 tcp 1040 [0 0 0 0] ------- [0:0 1:0 32 0] [3 0] 0 0
r 3.154796988 _0_ RTR  --- 11 tcp 1040 [0 0 0 0] ------- [0:0 1:0 32 0] [3 0] 0 0
Received a Packet. My ID : 0
Route Found: [(0) 2 1 ]
I am Node 0
Route Cache Hit: Trust value for Route # 1
Route Cache Hit: Route is [(0) 2 1 ]
Route Cache Hit: Route's trust value is 0.700000
Sending out Packet! My id : 0
SFs 3.154796988 _0_ 11 [0 -> 1] 1(0) to 2 
s 3.154796988 _0_ AGT  --- 12 tcp 1040 [0 0 0 0] ------- [0:0 1:0 32 0] [4 0] 0 0
r 3.154796988 _0_ RTR  --- 12 tcp 1040 [0 0 0 0] ------- [0:0 1:0 32 0] [4 0] 0 0
Received a Packet. My ID : 0
Route Found: [(0) 2 1 ]
I am Node 0
Route Cache Hit: Trust value for Route # 1
Route Cache Hit: Route is [(0) 2 1 ]
Route Cache Hit: Route's trust value is 0.700000
Sending out Packet! My id : 0
SFs 3.154796988 _0_ 12 [0 -> 1] 1(0) to 2 
s 3.154796988 _0_ RTR  --- 11 tcp 1060 [0 0 0 0] ------- [0:0 1:0 32 2] [3 0] 0 0
s 3.154796988 _0_ RTR  --- 12 tcp 1060 [0 0 0 0] ------- [0:0 1:0 32 2] [4 0] 0 0
r 3.155086361 _2_ MAC  --- 0 ACK 38 [0 2 0 0] 
s 3.155335988 _0_ MAC  --- 0 RTS 44 [256e 2 0 0] 
s 3.155555988 _1_ MAC  --- 0 RTS 44 [6ce 2 1 0] 
D 3.155556361 _2_ MAC  COL 0 RTS 44 [256e 2 0 0] 
D 3.155908361 _2_ MAC  COL 0 RTS 44 [6ce 2 1 0] 
s 3.156395988 _0_ MAC  --- 0 RTS 44 [256e 2 0 0] 
s 3.156415988 _1_ MAC  --- 0 RTS 44 [6ce 2 1 0] 
D 3.156416361 _2_ MAC  COL 0 RTS 44 [256e 2 0 0] 
D 3.156768361 _2_ MAC  COL 0 RTS 44 [6ce 2 1 0] 
s 3.158475988 _1_ MAC  --- 0 RTS 44 [6ce 2 1 0] 
r 3.158828361 _2_ MAC  --- 0 RTS 44 [6ce 2 1 0] 
s 3.158838361 _2_ MAC  --- 0 CTS 38 [594 1 0 0] 
r 3.159142734 _1_ MAC  --- 0 CTS 38 [594 1 0 0] 
s 3.159152734 _1_ MAC  --- 10 ack 138 [13a 2 1 800] ------- [1:0 0:0 32 2] [2 0] 0 0
r 3.160257106 _2_ MAC  --- 10 ack 80 [13a 2 1 800] ------- [1:0 0:0 32 2] [2 0] 1 0
s 3.160267106 _2_ MAC  --- 0 ACK 38 [0 1 0 0] 
r 3.160282106 _2_ RTR  --- 10 ack 80 [13a 2 1 800] ------- [1:0 0:0 32 2] [2 0] 1 0
Received a Packet. My ID : 2
Sending out Packet! My id : 2
f 3.160282106 _2_ RTR  --- 10 ack 80 [13a 2 1 800] ------- [1:0 0:0 31 0] [2 0] 1 0
r 3.160571479 _1_ MAC  --- 0 ACK 38 [0 1 0 0] 
s 3.160701479 _0_ MAC  --- 0 RTS 44 [256e 2 0 0] 
r 3.161053852 _2_ MAC  --- 0 RTS 44 [256e 2 0 0] 
s 3.161063852 _2_ MAC  --- 0 CTS 38 [2434 0 0 0] 
r 3.161368224 _0_ MAC  --- 0 CTS 38 [2434 0 0 0] 
s 3.161378224 _0_ MAC  --- 11 tcp 1118 [13a 2 0 800] ------- [0:0 1:0 32 2] [3 0] 0 0
r 3.170322597 _2_ MAC  --- 11 tcp 1060 [13a 2 0 800] ------- [0:0 1:0 32 2] [3 0] 1 0
s 3.170332597 _2_ MAC  --- 0 ACK 38 [0 0 0 0] 
r 3.170347597 _2_ RTR  --- 11 tcp 1060 [13a 2 0 800] ------- [0:0 1:0 32 2] [3 0] 1 0
Received a Packet. My ID : 2
SFf 3.170347597 _2_ 11 [0 -> 1] 1 to 1
f 3.170347597 _2_ RTR  --- 11 tcp 1060 [13a 2 0 800] ------- [0:0 1:0 31 1] [3 0] 1 0
r 3.170636970 _0_ MAC  --- 0 ACK 38 [0 0 0 0] 
s 3.170766970 _0_ MAC  --- 0 RTS 44 [256e 2 0 0] 
r 3.171119342 _2_ MAC  --- 0 RTS 44 [256e 2 0 0] 
s 3.171129342 _2_ MAC  --- 0 CTS 38 [2434 0 0 0] 
r 3.171433715 _0_ MAC  --- 0 CTS 38 [2434 0 0 0] 
s 3.171443715 _0_ MAC  --- 12 tcp 1118 [13a 2 0 800] ------- [0:0 1:0 32 2] [4 0] 0 0
r 3.180388088 _2_ MAC  --- 12 tcp 1060 [13a 2 0 800] ------- [0:0 1:0 32 2] [4 0] 1 0
s 3.180398088 _2_ MAC  --- 0 ACK 38 [0 0 0 0] 
r 3.180413088 _2_ RTR  --- 12 tcp 1060 [13a 2 0 800] ------- [0:0 1:0 32 2] [4 0] 1 0
Received a Packet. My ID : 2
SFf 3.180413088 _2_ 12 [0 -> 1] 1 to 1
f 3.180413088 _2_ RTR  --- 12 tcp 1060 [13a 2 0 800] ------- [0:0 1:0 31 1] [4 0] 1 0
r 3.180702460 _0_ MAC  --- 0 ACK 38 [0 0 0 0] 
s 3.180932088 _2_ MAC  --- 0 RTS 44 [6ce 0 2 0] 
r 3.181284460 _0_ MAC  --- 0 RTS 44 [6ce 0 2 0] 
s 3.181294460 _0_ MAC  --- 0 CTS 38 [594 2 0 0] 
r 3.181598833 _2_ MAC  --- 0 CTS 38 [594 2 0 0] 
s 3.181608833 _2_ MAC  --- 10 ack 138 [13a 0 2 800] ------- [1:0 0:0 31 0] [2 0] 1 0
r 3.182713206 _0_ MAC  --- 10 ack 80 [13a 0 2 800] ------- [1:0 0:0 31 0] [2 0] 2 0
s 3.182723206 _0_ MAC  --- 0 ACK 38 [0 2 0 0] 
r 3.182738206 _0_ RTR  --- 10 ack 80 [13a 0 2 800] ------- [1:0 0:0 31 0] [2 0] 2 0
Received a Packet. My ID : 0
r 3.182738206 _0_ AGT  --- 10 ack 40 [13a 0 2 800] ------- [1:0 0:0 31 0] [2 0] 2 0
s 3.182738206 _0_ AGT  --- 13 tcp 1040 [0 0 0 0] ------- [0:0 1:0 32 0] [5 0] 0 0
r 3.182738206 _0_ RTR  --- 13 tcp 1040 [0 0 0 0] ------- [0:0 1:0 32 0] [5 0] 0 0
Received a Packet. My ID : 0
Route Found: [(0) 2 1 ]
I am Node 0
Route Cache Hit: Trust value for Route # 1
Route Cache Hit: Route is [(0) 2 1 ]
Route Cache Hit: Route's trust value is 0.700000
Sending out Packet! My id : 0
SFs 3.182738206 _0_ 13 [0 -> 1] 1(0) to 2 
s 3.182738206 _0_ AGT  --- 14 tcp 1040 [0 0 0 0] ------- [0:0 1:0 32 0] [6 0] 0 0
r 3.182738206 _0_ RTR  --- 14 tcp 1040 [0 0 0 0] ------- [0:0 1:0 32 0] [6 0] 0 0
Received a Packet. My ID : 0
Route Found: [(0) 2 1 ]
I am Node 0
Route Cache Hit: Trust value for Route # 1
Route Cache Hit: Route is [(0) 2 1 ]
Route Cache Hit: Route's trust value is 0.700000
Sending out Packet! My id : 0
SFs 3.182738206 _0_ 14 [0 -> 1] 1(0) to 2 
s 3.182738206 _0_ RTR  --- 13 tcp 1060 [0 0 0 0] ------- [0:0 1:0 32 2] [5 0] 0 0
s 3.182738206 _0_ RTR  --- 14 tcp 1060 [0 0 0 0] ------- [0:0 1:0 32 2] [6 0] 0 0
r 3.183027578 _2_ MAC  --- 0 ACK 38 [0 2 0 0] 
s 3.183077578 _2_ MAC  --- 0 RTS 44 [256e 1 2 0] 
r 3.183429951 _1_ MAC  --- 0 RTS 44 [256e 1 2 0] 
s 3.183439951 _1_ MAC  --- 0 CTS 38 [2434 2 0 0] 
r 3.183744324 _2_ MAC  --- 0 CTS 38 [2434 2 0 0] 
s 3.183754324 _2_ MAC  --- 11 tcp 1118 [13a 1 2 800] ------- [0:0 1:0 31 1] [3 0] 1 0
r 3.192698696 _1_ MAC  --- 11 tcp 1060 [13a 1 2 800] ------- [0:0 1:0 31 1] [3 0] 2 0
s 3.192708696 _1_ MAC  --- 0 ACK 38 [0 2 0 0] 
r 3.192723696 _1_ RTR  --- 11 tcp 1060 [13a 1 2 800] ------- [0:0 1:0 31 1] [3 0] 2 0
Received a Packet. My ID : 1
r 3.192723696 _1_ AGT  --- 11 tcp 1040 [13a 1 2 800] ------- [0:0 1:0 31 1] [3 0] 2 0
s 3.192723696 _1_ AGT  --- 15 ack 40 [0 0 0 0] ------- [1:0 0:0 32 0] [3 0] 0 0
r 3.192723696 _1_ RTR  --- 15 ack 40 [0 0 0 0] ------- [1:0 0:0 32 0] [3 0] 0 0
Received a Packet. My ID : 1
Route Found: [(1) 2 0 ]
I am Node 1
Route Cache Hit: Trust value for Route # 1
Route Cache Hit: Route is [(1) 2 0 ]
Route Cache Hit: Route's trust value is 0.700000
Sending out Packet! My id : 1
SFs 3.192723696 _1_ 15 [1 -> 0] 1(0) to 2 
s 3.192723696 _1_ RTR  --- 15 ack 60 [0 0 0 0] ------- [1:0 0:0 32 2] [3 0] 0 0
r 3.193013069 _2_ MAC  --- 0 ACK 38 [0 2 0 0] 
s 3.193183069 _2_ MAC  --- 0 RTS 44 [256e 1 2 0] 
r 3.193535442 _1_ MAC  --- 0 RTS 44 [256e 1 2 0] 
s 3.193545442 _1_ MAC  --- 0 CTS 38 [2434 2 0 0] 
r 3.193849814 _2_ MAC  --- 0 CTS 38 [2434 2 0 0] 
s 3.193859814 _2_ MAC  --- 12 tcp 1118 [13a 1 2 800] ------- [0:0 1:0 31 1] [4 0] 1 0
r 3.202804187 _1_ MAC  --- 12 tcp 1060 [13a 1 2 800] ------- [0:0 1:0 31 1] [4 0] 2 0
s 3.202814187 _1_ MAC  --- 0 ACK 38 [0 2 0 0] 
r 3.202829187 _1_ RTR  --- 12 tcp 1060 [13a 1 2 800] ------- [0:0 1:0 31 1] [4 0] 2 0
Received a Packet. My ID : 1
r 3.202829187 _1_ AGT  --- 12 tcp 1040 [13a 1 2 800] ------- [0:0 1:0 31 1] [4 0] 2 0
s 3.202829187 _1_ AGT  --- 16 ack 40 [0 0 0 0] ------- [1:0 0:0 32 0] [4 0] 0 0
r 3.202829187 _1_ RTR  --- 16 ack 40 [0 0 0 0] ------- [1:0 0:0 32 0] [4 0] 0 0
Received a Packet. My ID : 1
Route Found: [(1) 2 0 ]
I am Node 1
Route Cache Hit: Trust value for Route # 1
Route Cache Hit: Route is [(1) 2 0 ]
Route Cache Hit: Route's trust value is 0.700000
Sending out Packet! My id : 1
SFs 3.202829187 _1_ 16 [1 -> 0] 1(0) to 2 
s 3.202829187 _1_ RTR  --- 16 ack 60 [0 0 0 0] ------- [1:0 0:0 32 2] [4 0] 0 0
r 3.203118560 _2_ MAC  --- 0 ACK 38 [0 2 0 0] 
s 3.203268187 _0_ MAC  --- 0 RTS 44 [256e 2 0 0] 
r 3.203620560 _2_ MAC  --- 0 RTS 44 [256e 2 0 0] 
s 3.203628187 _1_ MAC  --- 0 RTS 44 [62e 2 1 0] 
r 3.203980560 _2_ MAC  --- 0 RTS 44 [62e 2 1 0] 
s 3.203990560 _2_ MAC  --- 0 CTS 38 [4f4 1 0 0] 
r 3.204294932 _1_ MAC  --- 0 CTS 38 [4f4 1 0 0] 
s 3.204304932 _1_ MAC  --- 15 ack 118 [13a 2 1 800] ------- [1:0 0:0 32 2] [3 0] 0 0
r 3.205249305 _2_ MAC  --- 15 ack 60 [13a 2 1 800] ------- [1:0 0:0 32 2] [3 0] 1 0
s 3.205259305 _2_ MAC  --- 0 ACK 38 [0 1 0 0] 
r 3.205274305 _2_ RTR  --- 15 ack 60 [13a 2 1 800] ------- [1:0 0:0 32 2] [3 0] 1 0
Received a Packet. My ID : 2
SFf 3.205274305 _2_ 15 [1 -> 0] 1 to 0
f 3.205274305 _2_ RTR  --- 15 ack 60 [13a 2 1 800] ------- [1:0 0:0 31 0] [3 0] 1 0
r 3.205563678 _1_ MAC  --- 0 ACK 38 [0 1 0 0] 
s 3.205853305 _2_ MAC  --- 0 RTS 44 [62e 0 2 0] 
r 3.206205678 _0_ MAC  --- 0 RTS 44 [62e 0 2 0] 
s 3.206215678 _0_ MAC  --- 0 CTS 38 [4f4 2 0 0] 
r 3.206520050 _2_ MAC  --- 0 CTS 38 [4f4 2 0 0] 
s 3.206530050 _2_ MAC  --- 15 ack 118 [13a 0 2 800] ------- [1:0 0:0 31 0] [3 0] 1 0
r 3.207474423 _0_ MAC  --- 15 ack 60 [13a 0 2 800] ------- [1:0 0:0 31 0] [3 0] 2 0
s 3.207484423 _0_ MAC  --- 0 ACK 38 [0 2 0 0] 
r 3.207499423 _0_ RTR  --- 15 ack 60 [13a 0 2 800] ------- [1:0 0:0 31 0] [3 0] 2 0
Received a Packet. My ID : 0
r 3.207499423 _0_ AGT  --- 15 ack 40 [13a 0 2 800] ------- [1:0 0:0 31 0] [3 0] 2 0
s 3.207499423 _0_ AGT  --- 17 tcp 1040 [0 0 0 0] ------- [0:0 1:0 32 0] [7 0] 0 0
r 3.207499423 _0_ RTR  --- 17 tcp 1040 [0 0 0 0] ------- [0:0 1:0 32 0] [7 0] 0 0
Received a Packet. My ID : 0
Route Found: [(0) 2 1 ]
I am Node 0
Route Cache Hit: Trust value for Route # 1
Route Cache Hit: Route is [(0) 2 1 ]
Route Cache Hit: Route's trust value is 0.700000
Sending out Packet! My id : 0
SFs 3.207499423 _0_ 17 [0 -> 1] 1(0) to 2 
s 3.207499423 _0_ AGT  --- 18 tcp 1040 [0 0 0 0] ------- [0:0 1:0 32 0] [8 0] 0 0