n -t * -s 0  -x 25 -y 75 -Z 0 -z 5  -v circle -c black
n -t * -s 1  -x 225 -y 75 -Z 0 -z 5  -v circle -c black
n -t * -s 2  -x 125 -y 125 -Z 0 -z 5  -v circle -c black
n -t * -s 3  -x 125 -y 25 -Z 0 -z 5  -v circle -c black
V -t * -v 1.0a5 -a 0
W -t * -x 250 -y 250
A -t * -n 1 -p 0 -o 0x7fffffff -c 30 -a 1
A -t * -h 1 -m 1073741823 -s 0
c -t * -i 2 -n Blue
+ -t 3.000000000 -s 0 -d -1 -p tcp -e 40 -c 2 -a 0 -i 0 -k AGT 
- -t 3.000000000 -s 0 -d -1 -p tcp -e 40 -c 2 -a 0 -i 0 -k AGT
h -t 3.000000000 -s 0 -d -1 -p tcp -e 40 -c 2 -a 0 -i 0 -k AGT
+ -t 3.000000000 -s 1 -d -1 -p tcp -e 40 -c 2 -a 0 -i 2 -k AGT 
- -t 3.000000000 -s 1 -d -1 -p tcp -e 40 -c 2 -a 0 -i 2 -k AGT
h -t 3.000000000 -s 1 -d -1 -p tcp -e 40 -c 2 -a 0 -i 2 -k AGT
+ -t 3.006005419 -s 0 -d -1 -p DSR -e 32 -c 2 -a 0 -i 1 -k RTR 
- -t 3.006005419 -s 0 -d -1 -p DSR -e 32 -c 2 -a 0 -i 1 -k RTR
h -t 3.006005419 -s 0 -d -1 -p DSR -e 32 -c 2 -a 0 -i 1 -k RTR
+ -t 3.006620419 -s 0 -d -1 -p DSR -e 90 -c 2 -a 0 -i 1 -k MAC 
- -t 3.006620419 -s 0 -d -1 -p DSR -e 90 -c 2 -a 0 -i 1 -k MAC
h -t 3.006620419 -s 0 -d -1 -p DSR -e 90 -c 2 -a 0 -i 1 -k MAC
+ -t 3.006837876 -s 1 -d -1 -p DSR -e 32 -c 2 -a 0 -i 3 -k RTR 
- -t 3.006837876 -s 1 -d -1 -p DSR -e 32 -c 2 -a 0 -i 3 -k RTR
h -t 3.006837876 -s 1 -d -1 -p DSR -e 32 -c 2 -a 0 -i 3 -k RTR
+ -t 3.007112876 -s 1 -d -1 -p DSR -e 90 -c 2 -a 0 -i 3 -k MAC 
- -t 3.007112876 -s 1 -d -1 -p DSR -e 90 -c 2 -a 0 -i 3 -k MAC
h -t 3.007112876 -s 1 -d -1 -p DSR -e 90 -c 2 -a 0 -i 3 -k MAC
d -t 3.007113249 -s 3 -d -1 -p DSR -e 90 -c 2 -a 0 -i 1 -k MAC
d -t 3.007113249 -s 2 -d -1 -p DSR -e 90 -c 2 -a 0 -i 1 -k MAC
d -t 3.007833249 -s 3 -d -1 -p DSR -e 90 -c 2 -a 0 -i 3 -k MAC
d -t 3.007833249 -s 2 -d -1 -p DSR -e 90 -c 2 -a 0 -i 3 -k MAC
+ -t 3.042596654 -s 1 -d -1 -p DSR -e 32 -c 2 -a 0 -i 5 -k RTR 
- -t 3.042596654 -s 1 -d -1 -p DSR -e 32 -c 2 -a 0 -i 5 -k RTR
h -t 3.042596654 -s 1 -d -1 -p DSR -e 32 -c 2 -a 0 -i 5 -k RTR
+ -t 3.043231654 -s 1 -d -1 -p DSR -e 90 -c 2 -a 0 -i 5 -k MAC 
- -t 3.043231654 -s 1 -d -1 -p DSR -e 90 -c 2 -a 0 -i 5 -k MAC
h -t 3.043231654 -s 1 -d -1 -p DSR -e 90 -c 2 -a 0 -i 5 -k MAC
r -t 3.043952027 -s 3 -d -1 -p DSR -e 32 -c 2 -a 0 -i 5 -k MAC
r -t 3.043952027 -s 2 -d -1 -p DSR -e 32 -c 2 -a 0 -i 5 -k MAC
+ -t 3.048734192 -s 3 -d -1 -p DSR -e 48 -c 2 -a 0 -i 5 -k RTR 
- -t 3.048734192 -s 3 -d -1 -p DSR -e 48 -c 2 -a 0 -i 5 -k RTR
h -t 3.048734192 -s 3 -d -1 -p DSR -e 48 -c 2 -a 0 -i 5 -k RTR
+ -t 3.048824124 -s 2 -d -1 -p DSR -e 48 -c 2 -a 0 -i 5 -k RTR 
- -t 3.048824124 -s 2 -d -1 -p DSR -e 48 -c 2 -a 0 -i 5 -k RTR
h -t 3.048824124 -s 2 -d -1 -p DSR -e 48 -c 2 -a 0 -i 5 -k RTR
+ -t 3.048949192 -s 3 -d -1 -p DSR -e 106 -c 2 -a 0 -i 5 -k MAC 
- -t 3.048949192 -s 3 -d -1 -p DSR -e 106 -c 2 -a 0 -i 5 -k MAC
h -t 3.048949192 -s 3 -d -1 -p DSR -e 106 -c 2 -a 0 -i 5 -k MAC
r -t 3.049797525 -s 2 -d -1 -p DSR -e 48 -c 2 -a 0 -i 5 -k MAC
r -t 3.049797565 -s 0 -d -1 -p DSR -e 48 -c 2 -a 0 -i 5 -k MAC
r -t 3.049797565 -s 1 -d -1 -p DSR -e 48 -c 2 -a 0 -i 5 -k MAC
+ -t 3.050287525 -s 2 -d -1 -p DSR -e 106 -c 2 -a 0 -i 5 -k MAC 
- -t 3.050287525 -s 2 -d -1 -p DSR -e 106 -c 2 -a 0 -i 5 -k MAC
h -t 3.050287525 -s 2 -d -1 -p DSR -e 106 -c 2 -a 0 -i 5 -k MAC
r -t 3.051135859 -s 3 -d -1 -p DSR -e 48 -c 2 -a 0 -i 5 -k MAC
r -t 3.051135898 -s 0 -d -1 -p DSR -e 48 -c 2 -a 0 -i 5 -k MAC
r -t 3.051135898 -s 1 -d -1 -p DSR -e 48 -c 2 -a 0 -i 5 -k MAC
+ -t 3.054197301 -s 0 -d 2 -p DSR -e 52 -c 2 -a 0 -i 7 -k RTR 
- -t 3.054197301 -s 0 -d 2 -p DSR -e 52 -c 2 -a 0 -i 7 -k RTR
h -t 3.054197301 -s 0 -d 2 -p DSR -e 52 -c 2 -a 0 -i 7 -k RTR
+ -t 3.054852301 -s 0 -d -1 -p ARP -e 86 -c 2 -a 0 -i 0 -k MAC 
- -t 3.054852301 -s 0 -d -1 -p ARP -e 86 -c 2 -a 0 -i 0 -k MAC
h -t 3.054852301 -s 0 -d -1 -p ARP -e 86 -c 2 -a 0 -i 0 -k MAC
r -t 3.055540673 -s 2 -d -1 -p ARP -e 28 -c 2 -a 0 -i 0 -k MAC
r -t 3.055540673 -s 3 -d -1 -p ARP -e 28 -c 2 -a 0 -i 0 -k MAC
+ -t 3.055575668 -s 0 -d 3 -p DSR -e 52 -c 2 -a 0 -i 6 -k RTR 
- -t 3.055575668 -s 0 -d 3 -p DSR -e 52 -c 2 -a 0 -i 6 -k RTR
h -t 3.055575668 -s 0 -d 3 -p DSR -e 52 -c 2 -a 0 -i 6 -k RTR
+ -t 3.055595673 -s 2 -d -1 -p RTS -e 44 -c 2 -a 0 -i 0 -k MAC 
- -t 3.055595673 -s 2 -d -1 -p RTS -e 44 -c 2 -a 0 -i 0 -k MAC
h -t 3.055595673 -s 2 -d -1 -p RTS -e 44 -c 2 -a 0 -i 0 -k MAC
r -t 3.055948046 -s 0 -d -1 -p RTS -e 44 -c 2 -a 0 -i 0 -k MAC
+ -t 3.055958046 -s 0 -d -1 -p CTS -e 38 -c 2 -a 0 -i 0 -k MAC 
- -t 3.055958046 -s 0 -d -1 -p CTS -e 38 -c 2 -a 0 -i 0 -k MAC
h -t 3.055958046 -s 0 -d -1 -p CTS -e 38 -c 2 -a 0 -i 0 -k MAC
r -t 3.056262419 -s 2 -d -1 -p CTS -e 38 -c 2 -a 0 -i 0 -k MAC
+ -t 3.056272419 -s 2 -d -1 -p ARP -e 86 -c 2 -a 0 -i 0 -k MAC 
- -t 3.056272419 -s 2 -d -1 -p ARP -e 86 -c 2 -a 0 -i 0 -k MAC
h -t 3.056272419 -s 2 -d -1 -p ARP -e 86 -c 2 -a 0 -i 0 -k MAC
r -t 3.056960791 -s 0 -d -1 -p ARP -e 28 -c 2 -a 0 -i 0 -k MAC
+ -t 3.056970791 -s 0 -d -1 -p ACK -e 38 -c 2 -a 0 -i 0 -k MAC 
- -t 3.056970791 -s 0 -d -1 -p ACK -e 38 -c 2 -a 0 -i 0 -k MAC
h -t 3.056970791 -s 0 -d -1 -p ACK -e 38 -c 2 -a 0 -i 0 -k MAC
r -t 3.057275164 -s 2 -d -1 -p ACK -e 38 -c 2 -a 0 -i 0 -k MAC
+ -t 3.057564791 -s 0 -d -1 -p ARP -e 86 -c 2 -a 0 -i 0 -k MAC 
- -t 3.057564791 -s 0 -d -1 -p ARP -e 86 -c 2 -a 0 -i 0 -k MAC
h -t 3.057564791 -s 0 -d -1 -p ARP -e 86 -c 2 -a 0 -i 0 -k MAC
r -t 3.058253164 -s 2 -d -1 -p ARP -e 28 -c 2 -a 0 -i 0 -k MAC
r -t 3.058253164 -s 3 -d -1 -p ARP -e 28 -c 2 -a 0 -i 0 -k MAC
+ -t 3.058308164 -s 3 -d -1 -p RTS -e 44 -c 2 -a 0 -i 0 -k MAC 
- -t 3.058308164 -s 3 -d -1 -p RTS -e 44 -c 2 -a 0 -i 0 -k MAC
h -t 3.058308164 -s 3 -d -1 -p RTS -e 44 -c 2 -a 0 -i 0 -k MAC
r -t 3.058660537 -s 0 -d -1 -p RTS -e 44 -c 2 -a 0 -i 0 -k MAC
+ -t 3.058670537 -s 0 -d -1 -p CTS -e 38 -c 2 -a 0 -i 0 -k MAC 
- -t 3.058670537 -s 0 -d -1 -p CTS -e 38 -c 2 -a 0 -i 0 -k MAC
h -t 3.058670537 -s 0 -d -1 -p CTS -e 38 -c 2 -a 0 -i 0 -k MAC
r -t 3.058974909 -s 3 -d -1 -p CTS -e 38 -c 2 -a 0 -i 0 -k MAC
+ -t 3.058984909 -s 3 -d -1 -p ARP -e 86 -c 2 -a 0 -i 0 -k MAC 
- -t 3.058984909 -s 3 -d -1 -p ARP -e 86 -c 2 -a 0 -i 0 -k MAC
h -t 3.058984909 -s 3 -d -1 -p ARP -e 86 -c 2 -a 0 -i 0 -k MAC
r -t 3.059673282 -s 0 -d -1 -p ARP -e 28 -c 2 -a 0 -i 0 -k MAC
+ -t 3.059683282 -s 0 -d -1 -p ACK -e 38 -c 2 -a 0 -i 0 -k MAC 
- -t 3.059683282 -s 0 -d -1 -p ACK -e 38 -c 2 -a 0 -i 0 -k MAC
h -t 3.059683282 -s 0 -d -1 -p ACK -e 38 -c 2 -a 0 -i 0 -k MAC
r -t 3.059987655 -s 3 -d -1 -p ACK -e 38 -c 2 -a 0 -i 0 -k MAC
+ -t 3.060317282 -s 0 -d -1 -p RTS -e 44 -c 2 -a 0 -i 0 -k MAC 
- -t 3.060317282 -s 0 -d -1 -p RTS -e 44 -c 2 -a 0 -i 0 -k MAC
h -t 3.060317282 -s 0 -d -1 -p RTS -e 44 -c 2 -a 0 -i 0 -k MAC
r -t 3.060669655 -s 2 -d -1 -p RTS -e 44 -c 2 -a 0 -i 0 -k MAC
+ -t 3.060679655 -s 2 -d -1 -p CTS -e 38 -c 2 -a 0 -i 0 -k MAC 
- -t 3.060679655 -s 2 -d -1 -p CTS -e 38 -c 2 -a 0 -i 0 -k MAC
h -t 3.060679655 -s 2 -d -1 -p CTS -e 38 -c 2 -a 0 -i 0 -k MAC
r -t 3.060984027 -s 0 -d -1 -p CTS -e 38 -c 2 -a 0 -i 0 -k MAC
+ -t 3.060994027 -s 0 -d 2 -p DSR -e 110 -c 2 -a 0 -i 7 -k MAC 
- -t 3.060994027 -s 0 -d 2 -p DSR -e 110 -c 2 -a 0 -i 7 -k MAC
h -t 3.060994027 -s 0 -d 2 -p DSR -e 110 -c 2 -a 0 -i 7 -k MAC
r -t 3.061874400 -s 2 -d 2 -p DSR -e 52 -c 2 -a 0 -i 7 -k MAC
+ -t 3.061884400 -s 2 -d -1 -p ACK -e 38 -c 2 -a 0 -i 0 -k MAC 
- -t 3.061884400 -s 2 -d -1 -p ACK -e 38 -c 2 -a 0 -i 0 -k MAC
h -t 3.061884400 -s 2 -d -1 -p ACK -e 38 -c 2 -a 0 -i 0 -k MAC
+ -t 3.061899400 -s 2 -d 1 -p DSR -e 52 -c 2 -a 0 -i 7 -k RTR 
- -t 3.061899400 -s 2 -d 1 -p DSR -e 52 -c 2 -a 0 -i 7 -k RTR
h -t 3.061899400 -s 2 -d 1 -p DSR -e 52 -c 2 -a 0 -i 7 -k RTR
r -t 3.062188773 -s 0 -d -1 -p ACK -e 38 -c 2 -a 0 -i 0 -k MAC
+ -t 3.062358773 -s 0 -d -1 -p RTS -e 44 -c 2 -a 0 -i 0 -k MAC 
- -t 3.062358773 -s 0 -d -1 -p RTS -e 44 -c 2 -a 0 -i 0 -k MAC
h -t 3.062358773 -s 0 -d -1 -p RTS -e 44 -c 2 -a 0 -i 0 -k MAC
r -t 3.062711145 -s 3 -d -1 -p RTS -e 44 -c 2 -a 0 -i 0 -k MAC
+ -t 3.062721145 -s 3 -d -1 -p CTS -e 38 -c 2 -a 0 -i 0 -k MAC 
- -t 3.062721145 -s 3 -d -1 -p CTS -e 38 -c 2 -a 0 -i 0 -k MAC
h -t 3.062721145 -s 3 -d -1 -p CTS -e 38 -c 2 -a 0 -i 0 -k MAC
r -t 3.063025518 -s 0 -d -1 -p CTS -e 38 -c 2 -a 0 -i 0 -k MAC
+ -t 3.063035518 -s 0 -d 3 -p DSR -e 110 -c 2 -a 0 -i 6 -k MAC 
- -t 3.063035518 -s 0 -d 3 -p DSR -e 110 -c 2 -a 0 -i 6 -k MAC
h -t 3.063035518 -s 0 -d 3 -p DSR -e 110 -c 2 -a 0 -i 6 -k MAC
r -t 3.063915891 -s 3 -d 3 -p DSR -e 52 -c 2 -a 0 -i 6 -k MAC
+ -t 3.063925891 -s 3 -d -1 -p ACK -e 38 -c 2 -a 0 -i 0 -k MAC 
- -t 3.063925891 -s 3 -d -1 -p ACK -e 38 -c 2 -a 0 -i 0 -k MAC
h -t 3.063925891 -s 3 -d -1 -p ACK -e 38 -c 2 -a 0 -i 0 -k MAC
+ -t 3.063940891 -s 3 -d 1 -p DSR -e 52 -c 2 -a 0 -i 6 -k RTR 
- -t 3.063940891 -s 3 -d 1 -p DSR -e 52 -c 2 -a 0 -i 6 -k RTR
h -t 3.063940891 -s 3 -d 1 -p DSR -e 52 -c 2 -a 0 -i 6 -k RTR
r -t 3.064230263 -s 0 -d -1 -p ACK -e 38 -c 2 -a 0 -i 0 -k MAC
+ -t 3.064439891 -s 3 -d -1 -p ARP -e 86 -c 2 -a 0 -i 0 -k MAC 
- -t 3.064439891 -s 3 -d -1 -p ARP -e 86 -c 2 -a 0 -i 0 -k MAC
h -t 3.064439891 -s 3 -d -1 -p ARP -e 86 -c 2 -a 0 -i 0 -k MAC
r -t 3.065128224 -s 2 -d -1 -p ARP -e 28 -c 2 -a 0 -i 0 -k MAC
r -t 3.065128263 -s 0 -d -1 -p ARP -e 28 -c 2 -a 0 -i 0 -k MAC
r -t 3.065128263 -s 1 -d -1 -p ARP -e 28 -c 2 -a 0 -i 0 -k MAC
+ -t 3.065183263 -s 1 -d -1 -p RTS -e 44 -c 2 -a 0 -i 0 -k MAC 
- -t 3.065183263 -s 1 -d -1 -p RTS -e 44 -c 2 -a 0 -i 0 -k MAC
h -t 3.065183263 -s 1 -d -1 -p RTS -e 44 -c 2 -a 0 -i 0 -k MAC
r -t 3.065535636 -s 3 -d -1 -p RTS -e 44 -c 2 -a 0 -i 0 -k MAC
+ -t 3.065545636 -s 3 -d -1 -p CTS -e 38 -c 2 -a 0 -i 0 -k MAC 
- -t 3.065545636 -s 3 -d -1 -p CTS -e 38 -c 2 -a 0 -i 0 -k MAC
h -t 3.065545636 -s 3 -d -1 -p CTS -e 38 -c 2 -a 0 -i 0 -k MAC
r -t 3.065850009 -s 1 -d -1 -p CTS -e 38 -c 2 -a 0 -i 0 -k MAC
+ -t 3.065860009 -s 1 -d -1 -p ARP -e 86 -c 2 -a 0 -i 0 -k MAC 
- -t 3.065860009 -s 1 -d -1 -p ARP -e 86 -c 2 -a 0 -i 0 -k MAC
h -t 3.065860009 -s 1 -d -1 -p ARP -e 86 -c 2 -a 0 -i 0 -k MAC
r -t 3.066548381 -s 3 -d -1 -p ARP -e 28 -c 2 -a 0 -i 0 -k MAC
+ -t 3.066558381 -s 3 -d -1 -p ACK -e 38 -c 2 -a 0 -i 0 -k MAC 
- -t 3.066558381 -s 3 -d -1 -p ACK -e 38 -c 2 -a 0 -i 0 -k MAC
h -t 3.066558381 -s 3 -d -1 -p ACK -e 38 -c 2 -a 0 -i 0 -k MAC
r -t 3.066862754 -s 1 -d -1 -p ACK -e 38 -c 2 -a 0 -i 0 -k MAC
+ -t 3.067152715 -s 2 -d -1 -p ARP -e 86 -c 2 -a 0 -i 0 -k MAC 
- -t 3.067152715 -s 2 -d -1 -p ARP -e 86 -c 2 -a 0 -i 0 -k MAC
h -t 3.067152715 -s 2 -d -1 -p ARP -e 86 -c 2 -a 0 -i 0 -k MAC
r -t 3.067841048 -s 3 -d -1 -p ARP -e 28 -c 2 -a 0 -i 0 -k MAC
r -t 3.067841088 -s 0 -d -1 -p ARP -e 28 -c 2 -a 0 -i 0 -k MAC
r -t 3.067841088 -s 1 -d -1 -p ARP -e 28 -c 2 -a 0 -i 0 -k MAC
+ -t 3.068051088 -s 1 -d -1 -p RTS -e 44 -c 2 -a 0 -i 0 -k MAC 
- -t 3.068051088 -s 1 -d -1 -p RTS -e 44 -c 2 -a 0 -i 0 -k MAC
h -t 3.068051088 -s 1 -d -1 -p RTS -e 44 -c 2 -a 0 -i 0 -k MAC
r -t 3.068403460 -s 2 -d -1 -p RTS -e 44 -c 2 -a 0 -i 0 -k MAC
+ -t 3.068413460 -s 2 -d -1 -p CTS -e 38 -c 2 -a 0 -i 0 -k MAC 
- -t 3.068413460 -s 2 -d -1 -p CTS -e 38 -c 2 -a 0 -i 0 -k MAC
h -t 3.068413460 -s 2 -d -1 -p CTS -e 38 -c 2 -a 0 -i 0 -k MAC
r -t 3.068717833 -s 1 -d -1 -p CTS -e 38 -c 2 -a 0 -i 0 -k MAC
+ -t 3.068727833 -s 1 -d -1 -p ARP -e 86 -c 2 -a 0 -i 0 -k MAC 
- -t 3.068727833 -s 1 -d -1 -p ARP -e 86 -c 2 -a 0 -i 0 -k MAC
h -t 3.068727833 -s 1 -d -1 -p ARP -e 86 -c 2 -a 0 -i 0 -k MAC
r -t 3.069416206 -s 2 -d -1 -p ARP -e 28 -c 2 -a 0 -i 0 -k MAC
+ -t 3.069426206 -s 2 -d -1 -p ACK -e 38 -c 2 -a 0 -i 0 -k MAC 
- -t 3.069426206 -s 2 -d -1 -p ACK -e 38 -c 2 -a 0 -i 0 -k MAC
h -t 3.069426206 -s 2 -d -1 -p ACK -e 38 -c 2 -a 0 -i 0 -k MAC
r -t 3.069730578 -s 1 -d -1 -p ACK -e 38 -c 2 -a 0 -i 0 -k MAC
+ -t 3.069860539 -s 3 -d -1 -p RTS -e 44 -c 2 -a 0 -i 0 -k MAC 
- -t 3.069860539 -s 3 -d -1 -p RTS -e 44 -c 2 -a 0 -i 0 -k MAC
h -t 3.069860539 -s 3 -d -1 -p RTS -e 44 -c 2 -a 0 -i 0 -k MAC
r -t 3.070212912 -s 1 -d -1 -p RTS -e 44 -c 2 -a 0 -i 0 -k MAC
+ -t 3.070222912 -s 1 -d -1 -p CTS -e 38 -c 2 -a 0 -i 0 -k MAC 
- -t 3.070222912 -s 1 -d -1 -p CTS -e 38 -c 2 -a 0 -i 0 -k MAC
h -t 3.070222912 -s 1 -d -1 -p CTS -e 38 -c 2 -a 0 -i 0 -k MAC
r -t 3.070527284 -s 3 -d -1 -p CTS -e 38 -c 2 -a 0 -i 0 -k MAC
+ -t 3.070537284 -s 3 -d 1 -p DSR -e 110 -c 2 -a 0 -i 6 -k MAC 
- -t 3.070537284 -s 3 -d 1 -p DSR -e 110 -c 2 -a 0 -i 6 -k MAC
h -t 3.070537284 -s 3 -d 1 -p DSR -e 110 -c 2 -a 0 -i 6 -k MAC
r -t 3.071417657 -s 1 -d 1 -p DSR -e 52 -c 2 -a 0 -i 6 -k MAC
+ -t 3.071427657 -s 1 -d -1 -p ACK -e 38 -c 2 -a 0 -i 0 -k MAC 
- -t 3.071427657 -s 1 -d -1 -p ACK -e 38 -c 2 -a 0 -i 0 -k MAC
h -t 3.071427657 -s 1 -d -1 -p ACK -e 38 -c 2 -a 0 -i 0 -k MAC
+ -t 3.071442657 -s 1 -d 3 -p tcp -e 80 -c 2 -a 0 -i 2 -k RTR 
- -t 3.071442657 -s 1 -d 3 -p tcp -e 80 -c 2 -a 0 -i 2 -k RTR
h -t 3.071442657 -s 1 -d 3 -p tcp -e 80 -c 2 -a 0 -i 2 -k RTR
r -t 3.071732030 -s 3 -d -1 -p ACK -e 38 -c 2 -a 0 -i 0 -k MAC
+ -t 3.071862030 -s 2 -d -1 -p RTS -e 44 -c 2 -a 0 -i 0 -k MAC 
- -t 3.071862030 -s 2 -d -1 -p RTS -e 44 -c 2 -a 0 -i 0 -k MAC
h -t 3.071862030 -s 2 -d -1 -p RTS -e 44 -c 2 -a 0 -i 0 -k MAC
r -t 3.072214402 -s 1 -d -1 -p RTS -e 44 -c 2 -a 0 -i 0 -k MAC
+ -t 3.072224402 -s 1 -d -1 -p CTS -e 38 -c 2 -a 0 -i 0 -k MAC 
- -t 3.072224402 -s 1 -d -1 -p CTS -e 38 -c 2 -a 0 -i 0 -k MAC
h -t 3.072224402 -s 1 -d -1 -p CTS -e 38 -c 2 -a 0 -i 0 -k MAC
r -t 3.072528775 -s 2 -d -1 -p CTS -e 38 -c 2 -a 0 -i 0 -k MAC
+ -t 3.072538775 -s 2 -d 1 -p DSR -e 110 -c 2 -a 0 -i 7 -k MAC 
- -t 3.072538775 -s 2 -d 1 -p DSR -e 110 -c 2 -a 0 -i 7 -k MAC
h -t 3.072538775 -s 2 -d 1 -p DSR -e 110 -c 2 -a 0 -i 7 -k MAC
r -t 3.073419148 -s 1 -d 1 -p DSR -e 52 -c 2 -a 0 -i 7 -k MAC
+ -t 3.073429148 -s 1 -d -1 -p ACK -e 38 -c 2 -a 0 -i 0 -k MAC 
- -t 3.073429148 -s 1 -d -1 -p ACK -e 38 -c 2 -a 0 -i 0 -k MAC
h -t 3.073429148 -s 1 -d -1 -p ACK -e 38 -c 2 -a 0 -i 0 -k MAC
r -t 3.073733520 -s 2 -d -1 -p ACK -e 38 -c 2 -a 0 -i 0 -k MAC
+ -t 3.074043148 -s 1 -d -1 -p RTS -e 44 -c 2 -a 0 -i 0 -k MAC 
- -t 3.074043148 -s 1 -d -1 -p RTS -e 44 -c 2 -a 0 -i 0 -k MAC
h -t 3.074043148 -s 1 -d -1 -p RTS -e 44 -c 2 -a 0 -i 0 -k MAC
r -t 3.074395520 -s 3 -d -1 -p RTS -e 44 -c 2 -a 0 -i 0 -k MAC
+ -t 3.074405520 -s 3 -d -1 -p CTS -e 38 -c 2 -a 0 -i 0 -k MAC 
- -t 3.074405520 -s 3 -d -1 -p CTS -e 38 -c 2 -a 0 -i 0 -k MAC
h -t 3.074405520 -s 3 -d -1 -p CTS -e 38 -c 2 -a 0 -i 0 -k MAC
r -t 3.074709893 -s 1 -d -1 -p CTS -e 38 -c 2 -a 0 -i 0 -k MAC
+ -t 3.074719893 -s 1 -d 3 -p tcp -e 138 -c 2 -a 0 -i 2 -k MAC 
- -t 3.074719893 -s 1 -d 3 -p tcp -e 138 -c 2 -a 0 -i 2 -k MAC
h -t 3.074719893 -s 1 -d 3 -p tcp -e 138 -c 2 -a 0 -i 2 -k MAC
r -t 3.075824266 -s 3 -d 3 -p tcp -e 80 -c 2 -a 0 -i 2 -k MAC
+ -t 3.075834266 -s 3 -d -1 -p ACK -e 38 -c 2 -a 0 -i 0 -k MAC 
- -t 3.075834266 -s 3 -d -1 -p ACK -e 38 -c 2 -a 0 -i 0 -k MAC
h -t 3.075834266 -s 3 -d -1 -p ACK -e 38 -c 2 -a 0 -i 0 -k MAC
+ -t 3.075849266 -s 3 -d 0 -p tcp -e 80 -c 2 -a 0 -i 2 -k RTR 
- -t 3.075849266 -s 3 -d 0 -p tcp -e 80 -c 2 -a 0 -i 2 -k RTR
h -t 3.075849266 -s 3 -d 0 -p tcp -e 80 -c 2 -a 0 -i 2 -k RTR
r -t 3.076138638 -s 1 -d -1 -p ACK -e 38 -c 2 -a 0 -i 0 -k MAC
+ -t 3.076448266 -s 3 -d -1 -p RTS -e 44 -c 2 -a 0 -i 0 -k MAC 
- -t 3.076448266 -s 3 -d -1 -p RTS -e 44 -c 2 -a 0 -i 0 -k MAC
h -t 3.076448266 -s 3 -d -1 -p RTS -e 44 -c 2 -a 0 -i 0 -k MAC
r -t 3.076800638 -s 0 -d -1 -p RTS -e 44 -c 2 -a 0 -i 0 -k MAC
+ -t 3.076810638 -s 0 -d -1 -p CTS -e 38 -c 2 -a 0 -i 0 -k MAC 
- -t 3.076810638 -s 0 -d -1 -p CTS -e 38 -c 2 -a 0 -i 0 -k MAC
h -t 3.076810638 -s 0 -d -1 -p CTS -e 38 -c 2 -a 0 -i 0 -k MAC
+ -t 3.077071675 -s 0 -d 3 -p tcp -e 80 -c 2 -a 0 -i 0 -k RTR 
- -t 3.077071675 -s 0 -d 3 -p tcp -e 80 -c 2 -a 0 -i 0 -k RTR
h -t 3.077071675 -s 0 -d 3 -p tcp -e 80 -c 2 -a 0 -i 0 -k RTR
r -t 3.077115011 -s 3 -d -1 -p CTS -e 38 -c 2 -a 0 -i 0 -k MAC
+ -t 3.077125011 -s 3 -d 0 -p tcp -e 138 -c 2 -a 0 -i 2 -k MAC 
- -t 3.077125011 -s 3 -d 0 -p tcp -e 138 -c 2 -a 0 -i 2 -k MAC
h -t 3.077125011 -s 3 -d 0 -p tcp -e 138 -c 2 -a 0 -i 2 -k MAC
r -t 3.078229384 -s 0 -d 0 -p tcp -e 80 -c 2 -a 0 -i 2 -k MAC
+ -t 3.078239384 -s 0 -d -1 -p ACK -e 38 -c 2 -a 0 -i 0 -k MAC 
- -t 3.078239384 -s 0 -d -1 -p ACK -e 38 -c 2 -a 0 -i 0 -k MAC
h -t 3.078239384 -s 0 -d -1 -p ACK -e 38 -c 2 -a 0 -i 0 -k MAC
r -t 3.078254384 -s 0 -d 0 -p tcp -e 40 -c 2 -a 0 -i 2 -k AGT
+ -t 3.078254384 -s 0 -d -1 -p ack -e 40 -c 2 -a 0 -i 8 -k AGT 
- -t 3.078254384 -s 0 -d -1 -p ack -e 40 -c 2 -a 0 -i 8 -k AGT
h -t 3.078254384 -s 0 -d -1 -p ack -e 40 -c 2 -a 0 -i 8 -k AGT
+ -t 3.078254384 -s 0 -d 3 -p ack -e 80 -c 2 -a 0 -i 8 -k RTR 
- -t 3.078254384 -s 0 -d 3 -p ack -e 80 -c 2 -a 0 -i 8 -k RTR
h -t 3.078254384 -s 0 -d 3 -p ack -e 80 -c 2 -a 0 -i 8 -k RTR
r -t 3.078543756 -s 3 -d -1 -p ACK -e 38 -c 2 -a 0 -i 0 -k MAC
+ -t 3.079093384 -s 0 -d -1 -p RTS -e 44 -c 2 -a 0 -i 0 -k MAC 
- -t 3.079093384 -s 0 -d -1 -p RTS -e 44 -c 2 -a 0 -i 0 -k MAC
h -t 3.079093384 -s 0 -d -1 -p RTS -e 44 -c 2 -a 0 -i 0 -k MAC
r -t 3.079445756 -s 3 -d -1 -p RTS -e 44 -c 2 -a 0 -i 0 -k MAC
+ -t 3.079455756 -s 3 -d -1 -p CTS -e 38 -c 2 -a 0 -i 0 -k MAC 
- -t 3.079455756 -s 3 -d -1 -p CTS -e 38 -c 2 -a 0 -i 0 -k MAC
h -t 3.079455756 -s 3 -d -1 -p CTS -e 38 -c 2 -a 0 -i 0 -k MAC
r -t 3.079760129 -s 0 -d -1 -p CTS -e 38 -c 2 -a 0 -i 0 -k MAC
+ -t 3.079770129 -s 0 -d 3 -p tcp -e 138 -c 2 -a 0 -i 0 -k MAC 
- -t 3.079770129 -s 0 -d 3 -p tcp -e 138 -c 2 -a 0 -i 0 -k MAC
h -t 3.079770129 -s 0 -d 3 -p tcp -e 138 -c 2 -a 0 -i 0 -k MAC
r -t 3.080874502 -s 3 -d 3 -p tcp -e 80 -c 2 -a 0 -i 0 -k MAC
+ -t 3.080884502 -s 3 -d -1 -p ACK -e 38 -c 2 -a 0 -i 0 -k MAC 
- -t 3.080884502 -s 3 -d -1 -p ACK -e 38 -c 2 -a 0 -i 0 -k MAC
h -t 3.080884502 -s 3 -d -1 -p ACK -e 38 -c 2 -a 0 -i 0 -k MAC
+ -t 3.080899502 -s 3 -d 1 -p tcp -e 80 -c 2 -a 0 -i 0 -k RTR 
- -t 3.080899502 -s 3 -d 1 -p tcp -e 80 -c 2 -a 0 -i 0 -k RTR
h -t 3.080899502 -s 3 -d 1 -p tcp -e 80 -c 2 -a 0 -i 0 -k RTR
r -t 3.081188874 -s 0 -d -1 -p ACK -e 38 -c 2 -a 0 -i 0 -k MAC
+ -t 3.081318502 -s 3 -d -1 -p RTS -e 44 -c 2 -a 0 -i 0 -k MAC 
- -t 3.081318502 -s 3 -d -1 -p RTS -e 44 -c 2 -a 0 -i 0 -k MAC
h -t 3.081318502 -s 3 -d -1 -p RTS -e 44 -c 2 -a 0 -i 0 -k MAC
r -t 3.081670874 -s 1 -d -1 -p RTS -e 44 -c 2 -a 0 -i 0 -k MAC
+ -t 3.081680874 -s 1 -d -1 -p CTS -e 38 -c 2 -a 0 -i 0 -k MAC 
- -t 3.081680874 -s 1 -d -1 -p CTS -e 38 -c 2 -a 0 -i 0 -k MAC
h -t 3.081680874 -s 1 -d -1 -p CTS -e 38 -c 2 -a 0 -i 0 -k MAC
r -t 3.081985247 -s 3 -d -1 -p CTS -e 38 -c 2 -a 0 -i 0 -k MAC
+ -t 3.081995247 -s 3 -d 1 -p tcp -e 138 -c 2 -a 0 -i 0 -k MAC 
- -t 3.081995247 -s 3 -d 1 -p tcp -e 138 -c 2 -a 0 -i 0 -k MAC
h -t 3.081995247 -s 3 -d 1 -p tcp -e 138 -c 2 -a 0 -i 0 -k MAC
r -t 3.083099620 -s 1 -d 1 -p tcp -e 80 -c 2 -a 0 -i 0 -k MAC
+ -t 3.083109620 -s 1 -d -1 -p ACK -e 38 -c 2 -a 0 -i 0 -k MAC 
- -t 3.083109620 -s 1 -d -1 -p ACK -e 38 -c 2 -a 0 -i 0 -k MAC
h -t 3.083109620 -s 1 -d -1 -p ACK -e 38 -c 2 -a 0 -i 0 -k MAC
r -t 3.083124620 -s 1 -d 1 -p tcp -e 40 -c 2 -a 0 -i 0 -k AGT
+ -t 3.083124620 -s 1 -d -1 -p ack -e 40 -c 2 -a 0 -i 9 -k AGT 
- -t 3.083124620 -s 1 -d -1 -p ack -e 40 -c 2 -a 0 -i 9 -k AGT
h -t 3.083124620 -s 1 -d -1 -p ack -e 40 -c 2 -a 0 -i 9 -k AGT
+ -t 3.083124620 -s 1 -d 3 -p ack -e 80 -c 2 -a 0 -i 9 -k RTR 
- -t 3.083124620 -s 1 -d 3 -p ack -e 80 -c 2 -a 0 -i 9 -k RTR
h -t 3.083124620 -s 1 -d 3 -p ack -e 80 -c 2 -a 0 -i 9 -k RTR
r -t 3.083413992 -s 3 -d -1 -p ACK -e 38 -c 2 -a 0 -i 0 -k MAC
+ -t 3.083503620 -s 1 -d -1 -p RTS -e 44 -c 2 -a 0 -i 0 -k MAC 
- -t 3.083503620 -s 1 -d -1 -p RTS -e 44 -c 2 -a 0 -i 0 -k MAC
h -t 3.083503620 -s 1 -d -1 -p RTS -e 44 -c 2 -a 0 -i 0 -k MAC
+ -t 3.083623620 -s 0 -d -1 -p RTS -e 44 -c 2 -a 0 -i 0 -k MAC 
- -t 3.083623620 -s 0 -d -1 -p RTS -e 44 -c 2 -a 0 -i 0 -k MAC
h -t 3.083623620 -s 0 -d -1 -p RTS -e 44 -c 2 -a 0 -i 0 -k MAC
d -t 3.083623992 -s 3 -d -1 -p RTS -e 44 -c 2 -a 0 -i 0 -k MAC
d -t 3.083975992 -s 3 -d -1 -p RTS -e 44 -c 2 -a 0 -i 0 -k MAC
+ -t 3.084683620 -s 1 -d -1 -p RTS -e 44 -c 2 -a 0 -i 0 -k MAC 
- -t 3.084683620 -s 1 -d -1 -p RTS -e 44 -c 2 -a 0 -i 0 -k MAC
h -t 3.084683620 -s 1 -d -1 -p RTS -e 44 -c 2 -a 0 -i 0 -k MAC
r -t 3.085035992 -s 3 -d -1 -p RTS -e 44 -c 2 -a 0 -i 0 -k MAC
+ -t 3.085045992 -s 3 -d -1 -p CTS -e 38 -c 2 -a 0 -i 0 -k MAC 
- -t 3.085045992 -s 3 -d -1 -p CTS -e 38 -c 2 -a 0 -i 0 -k MAC
h -t 3.085045992 -s 3 -d -1 -p CTS -e 38 -c 2 -a 0 -i 0 -k MAC
r -t 3.085350365 -s 1 -d -1 -p CTS -e 38 -c 2 -a 0 -i 0 -k MAC
+ -t 3.085360365 -s 1 -d 3 -p ack -e 138 -c 2 -a 0 -i 9 -k MAC 
- -t 3.085360365 -s 1 -d 3 -p ack -e 138 -c 2 -a 0 -i 9 -k MAC
h -t 3.085360365 -s 1 -d 3 -p ack -e 138 -c 2 -a 0 -i 9 -k MAC
r -t 3.086464738 -s 3 -d 3 -p ack -e 80 -c 2 -a 0 -i 9 -k MAC
+ -t 3.086474738 -s 3 -d -1 -p ACK -e 38 -c 2 -a 0 -i 0 -k MAC 
- -t 3.086474738 -s 3 -d -1 -p ACK -e 38 -c 2 -a 0 -i 0 -k MAC
h -t 3.086474738 -s 3 -d -1 -p ACK -e 38 -c 2 -a 0 -i 0 -k MAC
+ -t 3.086489738 -s 3 -d 0 -p ack -e 80 -c 2 -a 0 -i 9 -k RTR 
- -t 3.086489738 -s 3 -d 0 -p ack -e 80 -c 2 -a 0 -i 9 -k RTR
h -t 3.086489738 -s 3 -d 0 -p ack -e 80 -c 2 -a 0 -i 9 -k RTR
r -t 3.086779110 -s 1 -d -1 -p ACK -e 38 -c 2 -a 0 -i 0 -k MAC
+ -t 3.086968738 -s 3 -d -1 -p RTS -e 44 -c 2 -a 0 -i 0 -k MAC 
- -t 3.086968738 -s 3 -d -1 -p RTS -e 44 -c 2 -a 0 -i 0 -k MAC
h -t 3.086968738 -s 3 -d -1 -p RTS -e 44 -c 2 -a 0 -i 0 -k MAC
r -t 3.087321110 -s 0 -d -1 -p RTS -e 44 -c 2 -a 0 -i 0 -k MAC
+ -t 3.087331110 -s 0 -d -1 -p CTS -e 38 -c 2 -a 0 -i 0 -k MAC 
- -t 3.087331110 -s 0 -d -1 -p CTS -e 38 -c 2 -a 0 -i 0 -k MAC
h -t 3.087331110 -s 0 -d -1 -p CTS -e 38 -c 2 -a 0 -i 0 -k MAC
r -t 3.087635483 -s 3 -d -1 -p CTS -e 38 -c 2 -a 0 -i 0 -k MAC
+ -t 3.087645483 -s 3 -d 0 -p ack -e 138 -c 2 -a 0 -i 9 -k MAC 
- -t 3.087645483 -s 3 -d 0 -p ack -e 138 -c 2 -a 0 -i 9 -k MAC
h -t 3.087645483 -s 3 -d 0 -p ack -e 138 -c 2 -a 0 -i 9 -k MAC
r -t 3.088749856 -s 0 -d 0 -p ack -e 80 -c 2 -a 0 -i 9 -k MAC
+ -t 3.088759856 -s 0 -d -1 -p ACK -e 38 -c 2 -a 0 -i 0 -k MAC 
- -t 3.088759856 -s 0 -d -1 -p ACK -e 38 -c 2 -a 0 -i 0 -k MAC
h -t 3.088759856 -s 0 -d -1 -p ACK -e 38 -c 2 -a 0 -i 0 -k MAC
r -t 3.088774856 -s 0 -d 0 -p ack -e 40 -c 2 -a 0 -i 9 -k AGT
+ -t 3.088774856 -s 0 -d -1 -p tcp -e 1040 -c 2 -a 0 -i 10 -k AGT 
- -t 3.088774856 -s 0 -d -1 -p tcp -e 1040 -c 2 -a 0 -i 10 -k AGT
h -t 3.088774856 -s 0 -d -1 -p tcp -e 1040 -c 2 -a 0 -i 10 -k AGT
+ -t 3.088774856 -s 0 -d -1 -p tcp -e 1040 -c 2 -a 0 -i 11 -k AGT 
- -t 3.088774856 -s 0 -d -1 -p tcp -e 1040 -c 2 -a 0 -i 11 -k AGT
h -t 3.088774856 -s 0 -d -1 -p tcp -e 1040 -c 2 -a 0 -i 11 -k AGT
+ -t 3.088774856 -s 0 -d 3 -p tcp -e 1080 -c 2 -a 0 -i 10 -k RTR 
- -t 3.088774856 -s 0 -d 3 -p tcp -e 1080 -c 2 -a 0 -i 10 -k RTR
h -t 3.088774856 -s 0 -d 3 -p tcp -e 1080 -c 2 -a 0 -i 10 -k RTR
+ -t 3.088774856 -s 0 -d 3 -p tcp -e 1060 -c 2 -a 0 -i 11 -k RTR 
- -t 3.088774856 -s 0 -d 3 -p tcp -e 1060 -c 2 -a 0 -i 11 -k RTR
h -t 3.088774856 -s 0 -d 3 -p tcp -e 1060 -c 2 -a 0 -i 11 -k RTR
r -t 3.089064229 -s 3 -d -1 -p ACK -e 38 -c 2 -a 0 -i 0 -k MAC
+ -t 3.089313856 -s 0 -d -1 -p RTS -e 44 -c 2 -a 0 -i 0 -k MAC 
- -t 3.089313856 -s 0 -d -1 -p RTS -e 44 -c 2 -a 0 -i 0 -k MAC
h -t 3.089313856 -s 0 -d -1 -p RTS -e 44 -c 2 -a 0 -i 0 -k MAC
r -t 3.089666229 -s 3 -d -1 -p RTS -e 44 -c 2 -a 0 -i 0 -k MAC
+ -t 3.089676229 -s 3 -d -1 -p CTS -e 38 -c 2 -a 0 -i 0 -k MAC 
- -t 3.089676229 -s 3 -d -1 -p CTS -e 38 -c 2 -a 0 -i 0 -k MAC
h -t 3.089676229 -s 3 -d -1 -p CTS -e 38 -c 2 -a 0 -i 0 -k MAC
r -t 3.089980601 -s 0 -d -1 -p CTS -e 38 -c 2 -a 0 -i 0 -k MAC
+ -t 3.089990601 -s 0 -d 3 -p ack -e 138 -c 2 -a 0 -i 8 -k MAC 
- -t 3.089990601 -s 0 -d 3 -p ack -e 138 -c 2 -a 0 -i 8 -k MAC
h -t 3.089990601 -s 0 -d 3 -p ack -e 138 -c 2 -a 0 -i 8 -k MAC
r -t 3.091094974 -s 3 -d 3 -p ack -e 80 -c 2 -a 0 -i 8 -k MAC
+ -t 3.091104974 -s 3 -d -1 -p ACK -e 38 -c 2 -a 0 -i 0 -k MAC 
- -t 3.091104974 -s 3 -d -1 -p ACK -e 38 -c 2 -a 0 -i 0 -k MAC
h -t 3.091104974 -s 3 -d -1 -p ACK -e 38 -c 2 -a 0 -i 0 -k MAC
+ -t 3.091119974 -s 3 -d 1 -p ack -e 80 -c 2 -a 0 -i 8 -k RTR 
- -t 3.091119974 -s 3 -d 1 -p ack -e 80 -c 2 -a 0 -i 8 -k RTR
h -t 3.091119974 -s 3 -d 1 -p ack -e 80 -c 2 -a 0 -i 8 -k RTR
r -t 3.091409347 -s 0 -d -1 -p ACK -e 38 -c 2 -a 0 -i 0 -k MAC
+ -t 3.091498974 -s 3 -d -1 -p RTS -e 44 -c 2 -a 0 -i 0 -k MAC 
- -t 3.091498974 -s 3 -d -1 -p RTS -e 44 -c 2 -a 0 -i 0 -k MAC
h -t 3.091498974 -s 3 -d -1 -p RTS -e 44 -c 2 -a 0 -i 0 -k MAC
r -t 3.091851347 -s 1 -d -1 -p RTS -e 44 -c 2 -a 0 -i 0 -k MAC
+ -t 3.091861347 -s 1 -d -1 -p CTS -e 38 -c 2 -a 0 -i 0 -k MAC 
- -t 3.091861347 -s 1 -d -1 -p CTS -e 38 -c 2 -a 0 -i 0 -k MAC
h -t 3.091861347 -s 1 -d -1 -p CTS -e 38 -c 2 -a 0 -i 0 -k MAC
r -t 3.092165719 -s 3 -d -1 -p CTS -e 38 -c 2 -a 0 -i 0 -k MAC
+ -t 3.092175719 -s 3 -d 1 -p ack -e 138 -c 2 -a 0 -i 8 -k MAC 
- -t 3.092175719 -s 3 -d 1 -p ack -e 138 -c 2 -a 0 -i 8 -k MAC
h -t 3.092175719 -s 3 -d 1 -p ack -e 138 -c 2 -a 0 -i 8 -k MAC
r -t 3.093280092 -s 1 -d 1 -p ack -e 80 -c 2 -a 0 -i 8 -k MAC
+ -t 3.093290092 -s 1 -d -1 -p ACK -e 38 -c 2 -a 0 -i 0 -k MAC 
- -t 3.093290092 -s 1 -d -1 -p ACK -e 38 -c 2 -a 0 -i 0 -k MAC
h -t 3.093290092 -s 1 -d -1 -p ACK -e 38 -c 2 -a 0 -i 0 -k MAC
r -t 3.093305092 -s 1 -d 1 -p ack -e 40 -c 2 -a 0 -i 8 -k AGT
+ -t 3.093305092 -s 1 -d -1 -p tcp -e 1040 -c 2 -a 0 -i 12 -k AGT 
- -t 3.093305092 -s 1 -d -1 -p tcp -e 1040 -c 2 -a 0 -i 12 -k AGT
h -t 3.093305092 -s 1 -d -1 -p tcp -e 1040 -c 2 -a 0 -i 12 -k AGT
+ -t 3.093305092 -s 1 -d -1 -p tcp -e 1040 -c 2 -a 0 -i 13 -k AGT 
- -t 3.093305092 -s 1 -d -1 -p tcp -e 1040 -c 2 -a 0 -i 13 -k AGT
h -t 3.093305092 -s 1 -d -1 -p tcp -e 1040 -c 2 -a 0 -i 13 -k AGT
+ -t 3.093305092 -s 1 -d 3 -p tcp -e 1080 -c 2 -a 0 -i 12 -k RTR 
- -t 3.093305092 -s 1 -d 3 -p tcp -e 1080 -c 2 -a 0 -i 12 -k RTR
h -t 3.093305092 -s 1 -d 3 -p tcp -e 1080 -c 2 -a 0 -i 12 -k RTR
+ -t 3.093305092 -s 1 -d 3 -p tcp -e 1060 -c 2 -a 0 -i 13 -k RTR 
- -t 3.093305092 -s 1 -d 3 -p tcp -e 1060 -c 2 -a 0 -i 13 -k RTR
h -t 3.093305092 -s 1 -d 3 -p tcp -e 1060 -c 2 -a 0 -i 13 -k RTR
r -t 3.093594465 -s 3 -d -1 -p ACK -e 38 -c 2 -a 0 -i 0 -k MAC
+ -t 3.094044092 -s 0 -d -1 -p RTS -e 44 -c 2 -a 0 -i 0 -k MAC 
- -t 3.094044092 -s 0 -d -1 -p RTS -e 44 -c 2 -a 0 -i 0 -k MAC
h -t 3.094044092 -s 0 -d -1 -p RTS -e 44 -c 2 -a 0 -i 0 -k MAC
+ -t 3.094244092 -s 1 -d -1 -p RTS -e 44 -c 2 -a 0 -i 0 -k MAC 
- -t 3.094244092 -s 1 -d -1 -p RTS -e 44 -c 2 -a 0 -i 0 -k MAC
h -t 3.094244092 -s 1 -d -1 -p RTS -e 44 -c 2 -a 0 -i 0 -k MAC
d -t 3.094244465 -s 3 -d -1 -p RTS -e 44 -c 2 -a 0 -i 0 -k MAC
d -t 3.094596465 -s 3 -d -1 -p RTS -e 44 -c 2 -a 0 -i 0 -k MAC
+ -t 3.094984092 -s 0 -d -1 -p RTS -e 44 -c 2 -a 0 -i 0 -k MAC 
- -t 3.094984092 -s 0 -d -1 -p RTS -e 44 -c 2 -a 0 -i 0 -k MAC
h -t 3.094984092 -s 0 -d -1 -p RTS -e 44 -c 2 -a 0 -i 0 -k MAC
r -t 3.095336465 -s 3 -d -1 -p RTS -e 44 -c 2 -a 0 -i 0 -k MAC
+ -t 3.095346465 -s 3 -d -1 -p CTS -e 38 -c 2 -a 0 -i 0 -k MAC 
- -t 3.095346465 -s 3 -d -1 -p CTS -e 38 -c 2 -a 0 -i 0 -k MAC
h -t 3.095346465 -s 3 -d -1 -p CTS -e 38 -c 2 -a 0 -i 0 -k MAC
r -t 3.095650837 -s 0 -d -1 -p CTS -e 38 -c 2 -a 0 -i 0 -k MAC
+ -t 3.095660837 -s 0 -d 3 -p tcp -e 1138 -c 2 -a 0 -i 10 -k MAC 
- -t 3.095660837 -s 0 -d 3 -p tcp -e 1138 -c 2 -a 0 -i 10 -k MAC
h -t 3.095660837 -s 0 -d 3 -p tcp -e 1138 -c 2 -a 0 -i 10 -k MAC
r -t 3.104765210 -s 3 -d 3 -p tcp -e 1080 -c 2 -a 0 -i 10 -k MAC
+ -t 3.104775210 -s 3 -d -1 -p ACK -e 38 -c 2 -a 0 -i 0 -k MAC 
- -t 3.104775210 -s 3 -d -1 -p ACK -e 38 -c 2 -a 0 -i 0 -k MAC
h -t 3.104775210 -s 3 -d -1 -p ACK -e 38 -c 2 -a 0 -i 0 -k MAC
+ -t 3.104790210 -s 3 -d 1 -p tcp -e 1080 -c 2 -a 0 -i 10 -k RTR 
- -t 3.104790210 -s 3 -d 1 -p tcp -e 1080 -c 2 -a 0 -i 10 -k RTR
h -t 3.104790210 -s 3 -d 1 -p tcp -e 1080 -c 2 -a 0 -i 10 -k RTR
r -t 3.105079583 -s 0 -d -1 -p ACK -e 38 -c 2 -a 0 -i 0 -k MAC
+ -t 3.105129583 -s 0 -d -1 -p RTS -e 44 -c 2 -a 0 -i 0 -k MAC 
- -t 3.105129583 -s 0 -d -1 -p RTS -e 44 -c 2 -a 0 -i 0 -k MAC
h -t 3.105129583 -s 0 -d -1 -p RTS -e 44 -c 2 -a 0 -i 0 -k MAC
r -t 3.105481955 -s 3 -d -1 -p RTS -e 44 -c 2 -a 0 -i 0 -k MAC
+ -t 3.105491955 -s 3 -d -1 -p CTS -e 38 -c 2 -a 0 -i 0 -k MAC 
- -t 3.105491955 -s 3 -d -1 -p CTS -e 38 -c 2 -a 0 -i 0 -k MAC
h -t 3.105491955 -s 3 -d -1 -p CTS -e 38 -c 2 -a 0 -i 0 -k MAC
r -t 3.105796328 -s 0 -d -1 -p CTS -e 38 -c 2 -a 0 -i 0 -k MAC
+ -t 3.105806328 -s 0 -d 3 -p tcp -e 1118 -c 2 -a 0 -i 11 -k MAC 
- -t 3.105806328 -s 0 -d 3 -p tcp -e 1118 -c 2 -a 0 -i 11 -k MAC
h -t 3.105806328 -s 0 -d 3 -p tcp -e 1118 -c 2 -a 0 -i 11 -k MAC
r -t 3.114750701 -s 3 -d 3 -p tcp -e 1060 -c 2 -a 0 -i 11 -k MAC
+ -t 3.114760701 -s 3 -d -1 -p ACK -e 38 -c 2 -a 0 -i 0 -k MAC 
- -t 3.114760701 -s 3 -d -1 -p ACK -e 38 -c 2 -a 0 -i 0 -k MAC
h -t 3.114760701 -s 3 -d -1 -p ACK -e 38 -c 2 -a 0 -i 0 -k MAC
+ -t 3.114775701 -s 3 -d 1 -p tcp -e 1060 -c 2 -a 0 -i 11 -k RTR 
- -t 3.114775701 -s 3 -d 1 -p tcp -e 1060 -c 2 -a 0 -i 11 -k RTR
h -t 3.114775701 -s 3 -d 1 -p tcp -e 1060 -c 2 -a 0 -i 11 -k RTR
r -t 3.115065073 -s 0 -d -1 -p ACK -e 38 -c 2 -a 0 -i 0 -k MAC
+ -t 3.115495073 -s 1 -d -1 -p RTS -e 44 -c 2 -a 0 -i 0 -k MAC 
- -t 3.115495073 -s 1 -d -1 -p RTS -e 44 -c 2 -a 0 -i 0 -k MAC
h -t 3.115495073 -s 1 -d -1 -p RTS -e 44 -c 2 -a 0 -i 0 -k MAC
r -t 3.115847446 -s 3 -d -1 -p RTS -e 44 -c 2 -a 0 -i 0 -k MAC
+ -t 3.115857446 -s 3 -d -1 -p CTS -e 38 -c 2 -a 0 -i 0 -k MAC 
- -t 3.115857446 -s 3 -d -1 -p CTS -e 38 -c 2 -a 0 -i 0 -k MAC
h -t 3.115857446 -s 3 -d -1 -p CTS -e 38 -c 2 -a 0 -i 0 -k MAC
r -t 3.116161819 -s 1 -d -1 -p CTS -e 38 -c 2 -a 0 -i 0 -k MAC
+ -t 3.116171819 -s 1 -d 3 -p tcp -e 1138 -c 2 -a 0 -i 12 -k MAC 
- -t 3.116171819 -s 1 -d 3 -p tcp -e 1138 -c 2 -a 0 -i 12 -k MAC
h -t 3.116171819 -s 1 -d 3 -p tcp -e 1138 -c 2 -a 0 -i 12 -k MAC
r -t 3.125276191 -s 3 -d 3 -p tcp -e 1080 -c 2 -a 0 -i 12 -k MAC
+ -t 3.125286191 -s 3 -d -1 -p ACK -e 38 -c 2 -a 0 -i 0 -k MAC 
- -t 3.125286191 -s 3 -d -1 -p ACK -e 38 -c 2 -a 0 -i 0 -k MAC
h -t 3.125286191 -s 3 -d -1 -p ACK -e 38 -c 2 -a 0 -i 0 -k MAC
+ -t 3.125301191 -s 3 -d 0 -p tcp -e 1080 -c 2 -a 0 -i 12 -k RTR 
- -t 3.125301191 -s 3 -d 0 -p tcp -e 1080 -c 2 -a 0 -i 12 -k RTR